<?xml version="1.0"?>
<VTKFile type="UnstructuredGrid" version="0.1" byte_order="LittleEndian">
<UnstructuredGrid>
<Piece NumberOfPoints="5000" NumberOfCells="4000">
<PointData Scalars="Reaction 0">
<DataArray type="Float32" Name="Reaction 0" format="ascii">
0.572072
0.572072
0.572072
0.572072
0.572072
0.572072
0.572072
0.572072
0.572072
0.572072
0.572072
0.572072
0.572072
0.572072
0.572072
0.572072
0.572072
0.572073
0.572073
0.572073
0.572073
0.572073
0.572073
0.572073
0.572073
0.572073
0.572073
0.572073
0.572073
0.572073
0.572073
0.572073
0.572073
0.572073
0.572074
0.572074
0.572074
0.572074
0.572074
0.572074
0.572074
0.572074
0.572074
0.572074
0.572074
0.572074
0.572075
0.572075
0.572075
0.572075
0.572075
0.572075
0.572075
0.572075
0.572076
0.572076
0.572076
0.572076
0.572076
0.572076
0.572076
0.572076
0.572077
0.572077
0.572077
0.572077
0.572077
0.572077
0.572078
0.572078
0.572078
0.572078
0.572078
0.572078
0.572079
0.572079
0.572079
0.572079
0.572079
0.572079
0.572079
0.57208
0.57208
0.57208
0.57208
0.57208
0.572081
0.572081
0.572081
0.572081
0.572081
0.572082
0.572082
0.572082
0.572082
0.572082
0.572083
0.572083
0.572083
0.572084
0.572084
0.572084
0.572084
0.572084
0.572085
0.572085
0.572085
0.572085
0.572086
0.572086
0.572086
0.572086
0.572087
0.572087
0.572087
0.572087
0.572088
0.572088
0.572088
0.572089
0.572089
0.572089
0.572089
0.57209
0.57209
0.57209
0.57209
0.572091
0.572091
0.572091
0.572091
0.572092
0.572092
0.572093
0.572093
0.572093
0.572093
0.572094
0.572094
0.572095
0.572095
0.572095
0.572095
0.572096
0.572096
0.572096
0.572097
0.572097
0.572097
0.572098
0.572098
0.572098
0.572099
0.572099
0.5721
0.5721
0.5721
0.5721
0.572101
0.572101
0.572101
0.572102
0.572102
0.572103
0.572103
0.572103
0.572104
0.572104
0.572105
0.572105
0.572105
0.572106
0.572106
0.572107
0.572107
0.572107
0.572108
0.572108
0.572109
0.572109
0.572109
0.57211
0.57211
0.572111
0.572111
0.572111
0.572112
0.572112
0.572113
0.572113
0.572113
0.572114
0.572114
0.572115
0.572116
0.572116
0.572116
0.572117
0.572117
0.572118
0.572118
0.572118
0.572119
0.57212
0.57212
0.57212
0.572121
0.572121
0.572122
0.572123
0.572123
0.572123
0.572124
0.572124
0.572125
0.572125
0.572126
0.572126
0.572127
0.572127
0.572127
0.572128
0.572129
0.572129
0.57213
0.57213
0.572131
0.572131
0.572132
0.572133
0.572133
0.572133
0.572134
0.572135
0.572135
0.572135
0.572136
0.572137
0.572137
0.572138
0.572138
0.572139
0.572139
0.57214
0.572141
0.572141
0.572141
0.572142
0.572143
0.572144
0.572144
0.572144
0.572145
0.572146
0.572147
0.572147
0.572147
0.572148
0.572149
0.572149
0.572149
0.57215
0.572151
0.572152
0.572152
0.572152
0.572153
0.572154
0.572155
0.572156
0.572156
0.572156
0.572157
0.572158
0.572159
0.572159
0.572159
0.57216
0.572161
0.572162
0.572162
0.572163
0.572163
0.572164
0.572165
0.572165
0.572166
0.572167
0.572168
0.572168
0.572168
0.572169
0.57217
0.572171
0.572172
0.572172
0.572173
0.572174
0.572174
0.572175
0.572175
0.572176
0.572177
0.572178
0.572179
0.572179
0.57218
0.57218
0.572181
0.572182
0.572182
0.572183
0.572184
0.572185
0.572186
0.572186
0.572187
0.572188
0.572189
0.57219
0.57219
0.57219
0.572191
0.572192
0.572193
0.572193
0.572194
0.572195
0.572196
0.572197
0.572197
0.572198
0.572199
0.5722
0.572201
0.572201
0.572202
0.572203
0.572204
0.572205
0.572205
0.572206
0.572207
0.572208
0.572209
0.572209
0.57221
0.572211
0.572212
0.572213
0.572213
0.572214
0.572215
0.572216
0.572217
0.572217
0.572218
0.572219
0.57222
0.572221
0.572221
0.572222
0.572223
0.572224
0.572225
0.572225
0.572226
0.572227
0.572228
0.572229
0.572229
0.57223
0.572231
0.572232
0.572234
0.572234
0.572235
0.572236
0.572237
0.572238
0.572238
0.572239
0.57224
0.572241
0.572242
0.572242
0.572244
0.572245
0.572246
0.572247
0.572247
0.572248
0.572249
0.57225
0.572251
0.572251
0.572253
0.572254
0.572255
0.572256
0.572256
0.572257
0.572258
0.57226
0.572261
0.572261
0.572262
0.572263
0.572264
0.572266
0.572266
0.572267
0.572268
0.572269
0.57227
0.57227
0.572272
0.572273
0.572274
0.572275
0.572275
0.572276
0.572278
0.572279
0.57228
0.57228
0.572281
0.572283
0.572284
0.572285
0.572285
0.572286
0.572288
0.572289
0.57229
0.57229
0.572291
0.572293
0.572294
0.572295
0.572295
0.572296
0.572298
0.572299
0.5723
0.5723
0.572302
0.572303
0.572304
0.572306
0.572306
0.572307
0.572308
0.572309
0.572311
0.572311
0.572312
0.572313
0.572315
0.572316
0.572316
0.572318
0.572319
0.57232
0.572322
0.572322
0.572323
0.572324
0.572326
0.572327
0.572327
0.572328
0.57233
0.572331
0.572333
0.572333
0.572334
0.572335
0.572337
0.572338
0.572338
0.57234
0.572341
0.572342
0.572344
0.572344
0.572345
0.572347
0.572348
0.572349
0.572349
0.572351
0.572352
0.572354
0.572355
0.572355
0.572357
0.572358
0.57236
0.572361
0.572361
0.572363
0.572364
0.572366
0.572367
0.572367
0.572368
0.57237
0.572371
0.572373
0.572373
0.572374
0.572376
0.572377
0.572379
0.572379
0.57238
0.572382
0.572384
0.572385
0.572385
0.572387
0.572388
0.57239
0.572391
0.572391
0.572393
0.572394
0.572396
0.572397
0.572397
0.572399
0.572401
0.572402
0.572404
0.572404
0.572405
0.572407
0.572408
0.57241
0.57241
0.572412
0.572413
0.572415
0.572416
0.572416
0.572418
0.57242
0.572421
0.572423
0.572423
0.572424
0.572426
0.572428
0.572429
0.572429
0.572431
0.572433
0.572434
0.572436
0.572436
0.572438
0.572439
0.572441
0.572443
0.572443
0.572444
0.572446
0.572448
0.572449
0.572449
0.572451
0.572453
0.572454
0.572456
0.572456
0.572458
0.572459
0.572461
0.572463
0.572463
0.572465
0.572466
0.572468
0.57247
0.57247
0.572472
0.572473
0.572475
0.572477
0.572477
0.572479
0.57248
0.572482
0.572484
0.572484
0.572486
0.572487
0.572489
0.572491
0.572491
0.572493
0.572494
0.572496
0.572498
0.572498
0.5725
0.572502
0.572503
0.572505
0.572505
0.572507
0.572509
0.572511
0.572513
0.572513
0.572514
0.572516
0.572518
0.57252
0.57252
0.572522
0.572524
0.572525
0.572527
0.572527
0.572529
0.572531
0.572533
0.572535
0.572535
0.572537
0.572539
0.57254
0.572542
0.572542
0.572544
0.572546
0.572548
0.57255
0.57255
0.572552
0.572554
0.572556
0.572558
0.572558
0.57256
0.572562
0.572563
0.572565
0.572565
0.572567
0.572569
0.572571
0.572573
0.572573
0.572575
0.572577
0.572579
0.572581
0.572581
0.572583
0.572585
0.572587
0.572589
0.572589
0.572591
0.572593
0.572595
0.572597
0.572597
0.572599
0.572601
0.572603
0.572605
0.572605
0.572607
0.572609
0.572611
0.572613
0.572613
0.572615
0.572617
0.572619
0.572621
0.572621
0.572623
0.572626
0.572628
0.57263
0.57263
0.572632
0.572634
0.572636
0.572638
0.572638
0.57264
0.572642
0.572644
0.572646
0.572646
0.572649
0.572651
0.572653
0.572655
0.572655
0.572657
0.572659
0.572661
0.572663
0.572663
0.572666
0.572668
0.57267
0.572672
0.572672
0.572674
0.572676
0.572679
0.572681
0.572681
0.572683
0.572685
0.572687
0.572689
0.572689
0.572692
0.572694
0.572696
0.572698
0.572698
0.572701
0.572703
0.572705
0.572707
0.572707
0.572709
0.572712
0.572714
0.572716
0.572716
0.572718
0.572721
0.572723
0.572725
0.572725
0.572727
0.57273
0.572732
0.572734
0.572734
0.572737
0.572739
0.572741
0.572743
0.572743
0.572746
0.572748
0.57275
0.572753
0.572753
0.572755
0.572757
0.57276
0.572762
0.572762
0.572764
0.572767
0.572769
0.572771
0.572771
0.572774
0.572776
0.572778
0.572781
0.572781
0.572783
0.572785
0.572788
0.57279
0.57279
0.572793
0.572795
0.572797
0.5728
0.5728
0.572802
0.572804
0.572807
0.572809
0.572809
0.572812
0.572814
0.572816
0.572819
0.572819
0.572821
0.572824
0.572826
0.572829
0.572829
0.572831
0.572834
0.572836
0.572839
0.572839
0.572841
0.572844
0.572846
0.572849
0.572849
0.572851
0.572854
0.572856
0.572859
0.572859
0.572861
0.572864
0.572866
0.572869
0.572869
0.572871
0.572874
0.572876
0.572879
0.572879
0.572881
0.572884
0.572886
0.572889
0.572889
0.572892
0.572894
0.572897
0.572899
0.572899
0.572902
0.572904
0.572907
0.57291
0.57291
0.572912
0.572915
0.572917
0.57292
0.57292
0.572923
0.572925
0.572928
0.572931
0.572931
0.572933
0.572936
0.572939
0.572941
0.572941
0.572944
0.572946
0.572949
0.572952
0.572952
0.572954
0.572957
0.57296
0.572963
0.572963
0.572965
0.572968
0.572971
0.572973
0.572973
0.572976
0.572979
0.572981
0.572984
0.572984
0.572987
0.57299
0.572992
0.572995
0.572995
0.572998
0.573001
0.573003
0.573006
0.573006
0.573009
0.573012
0.573014
0.573017
0.573017
0.57302
0.573023
0.573026
0.573028
0.573028
0.573031
0.573034
0.573037
0.57304
0.57304
0.573042
0.573045
0.573048
0.573051
0.573051
0.573054
0.573057
0.573059
0.573062
0.573062
0.573065
0.573068
0.573071
0.573074
0.573074
0.573077
0.573079
0.573082
0.573085
0.573085
0.573088
0.573091
0.573094
0.573097
0.573097
0.5731
0.573103
0.573106
0.573108
0.573108
0.573111
0.573114
0.573117
0.57312
0.57312
0.573123
0.573126
0.573129
0.573132
0.573132
0.573135
0.573138
0.573141
0.573144
0.573144
0.573147
0.57315
0.573153
0.573156
0.573156
0.573159
0.573162
0.573165
0.573168
0.573168
0.573171
0.573174
0.573177
0.57318
0.57318
0.573183
0.573186
0.573189
0.573192
0.573192
0.573195
0.573198
0.573202
0.573205
0.573205
0.573208
0.573211
0.573214
0.573217
0.573217
0.57322
0.573223
0.573226
0.573229
0.573229
0.573233
0.573236
0.573239
0.573242
0.573242
0.573245
0.573248
0.573251
0.573255
0.573255
0.573258
0.573261
0.573264
0.573267
0.573267
0.57327
0.573274
0.573277
0.57328
0.57328
0.573283
0.573286
0.57329
0.573293
0.573293
0.573296
0.573299
0.573302
0.573306
0.573306
0.573309
0.573312
0.573315
0.573319
0.573319
0.573322
0.573325
0.573328
0.573332
0.573332
0.573335
0.573338
0.573342
0.573345
0.573345
0.573348
0.573352
0.573355
0.573358
0.573358
0.573361
0.573365
0.573368
0.573371
0.573371
0.573375
0.573378
0.573381
0.573385
0.573385
0.573388
0.573392
0.573395
0.573398
0.573398
0.573402
0.573405
0.573408
0.573412
0.573412
0.573415
0.573419
0.573422
0.573425
0.573425
0.573429
0.573432
0.573436
0.573439
0.573439
0.573442
0.573446
0.573449
0.573453
0.573453
0.573456
0.57346
0.573463
0.573467
0.573467
0.57347
0.573474
0.573477
0.573481
0.573481
0.573484
0.573488
0.573491
0.573495
0.573495
0.573498
0.573502
0.573505
0.573509
0.573509
0.573513
0.573516
0.57352
0.573523
0.573523
0.573527
0.57353
0.573534
0.573538
0.573538
0.573541
0.573545
0.573548
0.573552
0.573552
0.573556
0.573559
0.573563
0.573566
0.573566
0.57357
0.573574
0.573577
0.573581
0.573581
0.573585
0.573588
0.573592
0.573596
0.573596
0.573599
0.573603
0.573607
0.57361
0.57361
0.573614
0.573618
0.573621
0.573625
0.573625
0.573629
0.573633
0.573636
0.57364
0.57364
0.573644
0.573647
0.573651
0.573655
0.573655
0.573659
0.573662
0.573666
0.57367
0.57367
0.573674
0.573678
0.573681
0.573685
0.573685
0.573689
0.573693
0.573697
0.5737
0.5737
0.573704
0.573708
0.573712
0.573716
0.573716
0.57372
0.573723
0.573727
0.573731
0.573731
0.573735
0.573739
0.573743
0.573747
0.573747
0.573751
0.573754
0.573758
0.573762
0.573762
0.573766
0.57377
0.573774
0.573778
0.573778
0.573782
0.573786
0.57379
0.573794
0.573794
0.573798
0.573802
0.573806
0.573809
0.573809
0.573813
0.573817
0.573821
0.573825
0.573825
0.573829
0.573833
0.573837
0.573841
0.573841
0.573845
0.573849
0.573854
0.573858
0.573858
0.573862
0.573866
0.57387
0.573874
0.573874
0.573878
0.573882
0.573886
0.57389
0.57389
0.573894
0.573898
0.573902
0.573906
0.573906
0.573911
0.573915
0.573919
0.573923
0.573923
0.573927
0.573931
0.573935
0.573939
0.573939
0.573944
0.573948
0.573952
0.573956
0.573956
0.57396
0.573965
0.573969
0.573973
0.573973
0.573977
0.573981
0.573986
0.57399
0.57399
0.573994
0.573998
0.574002
0.574007
0.574007
0.574011
0.574015
0.574019
0.574024
0.574024
0.574028
0.574032
0.574037
0.574041
0.574041
0.574045
0.574049
0.574054
0.574058
0.574058
0.574062
0.574067
0.574071
0.574075
0.574075
0.57408
0.574084
0.574088
0.574093
0.574093
0.574097
0.574101
0.574106
0.57411
0.57411
0.574114
0.574119
0.574123
0.574127
0.574127
0.574132
0.574136
0.574141
0.574145
0.574145
0.57415
0.574154
0.574159
0.574163
0.574163
0.574168
0.574172
0.574177
0.574181
0.574181
0.574186
0.57419
0.574195
0.574199
0.574199
0.574204
0.574208
0.574213
0.574217
0.574217
0.574222
0.574226
0.574231
0.574235
0.574235
0.57424
0.574245
0.574249
0.574254
0.574254
0.574258
0.574263
0.574267
0.574272
0.574272
0.574277
0.574281
0.574286
0.57429
0.57429
0.574295
0.5743
0.574304
0.574309
0.574309
0.574314
0.574318
0.574323
0.574328
0.574328
0.574332
0.574337
0.574342
0.574346
0.574346
0.574351
0.574356
0.574361
0.574365
0.574365
0.57437
0.574375
0.57438
0.574384
0.574384
0.574389
0.574394
0.574399
0.574403
0.574403
0.574408
0.574413
0.574418
0.574423
0.574423
0.574427
0.574432
0.574437
0.574442
0.574442
0.574447
0.574451
0.574456
0.574461
0.574461
0.574466
0.574471
0.574476
0.574481
0.574481
0.574485
0.57449
0.574495
0.5745
0.5745
0.574505
0.57451
0.574515
0.57452
0.57452
0.574525
0.57453
0.574535
0.57454
0.57454
0.574545
0.57455
0.574554
0.574559
0.574559
0.574564
0.574569
0.574574
0.574579
0.574579
0.574584
0.574589
0.574594
0.5746
0.5746
0.574605
0.57461
0.574615
0.57462
0.57462
0.574625
0.57463
0.574635
0.57464
0.57464
0.574645
0.57465
0.574655
0.57466
0.57466
0.574666
0.574671
0.574676
0.574681
0.574681
0.574686
0.574691
0.574696
0.574702
0.574702
0.574707
0.574712
0.574717
0.574722
0.574722
0.574727
0.574733
0.574738
0.574743
0.574743
0.574748
0.574753
0.574759
0.574764
0.574764
0.574769
0.574774
0.57478
0.574785
0.574785
0.57479
0.574796
0.574801
0.574806
0.574806
0.574811
0.574817
0.574822
0.574827
0.574827
0.574833
0.574838
0.574843
0.574848
0.574848
0.574854
0.574859
0.574864
0.57487
0.57487
0.574875
0.574881
0.574886
0.574892
0.574892
0.574897
0.574902
0.574908
0.574913
0.574913
0.574919
0.574924
0.57493
0.574935
0.574935
0.574941
0.574946
0.574952
0.574957
0.574957
0.574963
0.574968
0.574974
0.574979
0.574979
0.574985
0.57499
0.574996
0.575001
0.575001
0.575007
0.575013
0.575018
0.575024
0.575024
0.575029
0.575035
0.57504
0.575046
0.575046
0.575052
0.575057
0.575063
0.575069
0.575069
0.575074
0.57508
0.575085
0.575091
0.575091
0.575097
0.575102
0.575108
0.575114
0.575114
0.57512
0.575125
0.575131
0.575137
0.575137
0.575142
0.575148
0.575154
0.57516
0.57516
0.575165
0.575171
0.575177
0.575183
0.575183
0.575188
0.575194
0.5752
0.575206
0.575206
0.575212
0.575217
0.575223
0.575229
0.575229
0.575235
0.575241
0.575247
0.575253
0.575253
0.575258
0.575264
0.57527
0.575276
0.575276
0.575282
0.575288
0.575294
0.5753
0.5753
0.575306
0.575312
0.575318
0.575323
0.575323
0.575329
0.575335
0.575341
0.575347
0.575347
0.575353
0.575359
0.575365
0.575371
0.575371
0.575377
0.575383
0.575389
0.575395
0.575395
0.575402
0.575408
0.575414
0.57542
0.57542
0.575426
0.575432
0.575438
0.575444
0.575444
0.57545
0.575456
0.575462
0.575469
0.575469
0.575475
0.575481
0.575487
0.575493
0.575493
0.575499
0.575506
0.575512
0.575518
0.575518
0.575524
0.57553
0.575536
0.575543
0.575543
0.575549
0.575555
0.575561
0.575568
0.575568
0.575574
0.57558
0.575586
0.575593
0.575593
0.575599
0.575605
0.575611
0.575618
0.575618
0.575624
0.57563
0.575637
0.575643
0.575643
0.575649
0.575656
0.575662
0.575669
0.575669
0.575675
0.575681
0.575688
0.575694
0.575694
0.575701
0.575707
0.575714
0.57572
0.57572
0.575727
0.575733
0.57574
0.575746
0.575746
0.575753
0.575759
0.575766
0.575772
0.575772
0.575779
0.575785
0.575792
0.575798
0.575798
0.575805
0.575811
0.575818
0.575824
0.575824
0.575831
0.575838
0.575844
0.575851
0.575851
0.575857
0.575864
0.575871
0.575877
0.575877
0.575884
0.575891
0.575897
0.575904
0.575904
0.575911
0.575917
0.575924
0.575931
0.575931
0.575937
0.575944
0.575951
0.575958
0.575958
0.575964
0.575971
0.575978
0.575985
0.575985
0.575991
0.575998
0.576005
0.576012
0.576012
0.576019
0.576025
0.576032
0.576039
0.576039
0.576046
0.576053
0.57606
0.576067
0.576067
0.576073
0.57608
0.576087
0.576094
0.576094
0.576101
0.576108
0.576115
0.576122
0.576122
0.576129
0.576136
0.576143
0.57615
0.57615
0.576157
0.576164
0.576171
0.576178
0.576178
0.576185
0.576192
0.576199
0.576206
0.576206
0.576213
0.57622
0.576227
0.576234
0.576234
0.576241
0.576248
0.576255
0.576262
0.576262
0.57627
0.576277
0.576284
0.576291
0.576291
0.576298
0.576305
0.576312
0.57632
0.57632
0.576327
0.576334
0.576341
0.576348
0.576348
0.576356
0.576363
0.57637
0.576377
0.576377
0.576385
0.576392
0.576399
0.576406
0.576406
0.576414
0.576421
0.576428
0.576435
0.576435
0.576443
0.57645
0.576457
0.576465
0.576465
0.576472
0.576479
0.576487
0.576494
0.576494
0.576502
0.576509
0.576517
0.576524
0.576524
0.576532
0.576539
0.576546
0.576554
0.576554
0.576561
0.576569
0.576577
0.576584
0.576584
0.576592
0.576599
0.576607
0.576614
0.576614
0.576622
0.576629
0.576637
0.576644
0.576644
0.576652
0.57666
0.576667
0.576675
0.576675
0.576682
0.57669
0.576698
0.576705
0.576705
0.576713
0.576721
0.576728
0.576736
0.576736
0.576744
0.576752
0.576759
0.576767
0.576767
0.576775
0.576782
0.57679
0.576798
0.576798
0.576806
0.576814
0.576821
0.576829
0.576829
0.576837
0.576845
0.576853
0.57686
0.57686
0.576868
0.576876
0.576884
0.576892
0.576892
0.5769
0.576908
0.576916
0.576923
0.576923
0.576931
0.576939
0.576947
0.576955
0.576955
0.576963
0.576971
0.576979
0.576987
0.576987
0.576995
0.577003
0.577011
0.577019
0.577019
0.577027
0.577035
0.577043
0.577051
0.577051
0.577059
0.577068
0.577076
0.577084
0.577084
0.577092
0.5771
0.577108
0.577116
0.577116
0.577124
0.577133
0.577141
0.577149
0.577149
0.577157
0.577165
0.577174
0.577182
0.577182
0.57719
0.577198
0.577207
0.577215
0.577215
0.577223
0.577231
0.57724
0.577248
0.577248
0.577256
0.577265
0.577273
0.577281
0.577281
0.577289
0.577298
0.577306
0.577314
0.577314
0.577323
0.577331
0.57734
0.577348
0.577348
0.577356
0.577365
0.577373
0.577382
0.577382
0.57739
0.577399
0.577407
0.577416
0.577416
0.577424
0.577433
0.577442
0.57745
0.57745
0.577459
0.577467
0.577476
0.577485
0.577485
0.577493
0.577502
0.57751
0.577519
0.577519
0.577528
0.577536
0.577545
0.577554
0.577554
0.577562
0.577571
0.57758
0.577589
0.577589
0.577597
0.577606
0.577615
0.577624
0.577624
0.577632
0.577641
0.57765
0.577659
0.577659
0.577668
0.577676
0.577685
0.577694
0.577694
0.577703
0.577712
0.577721
0.57773
0.57773
0.577738
0.577747
0.577756
0.577765
0.577765
0.577774
0.577783
0.577792
0.577801
0.577801
0.57781
0.577819
0.577828
0.577837
0.577837
0.577846
0.577855
0.577864
0.577873
0.577873
0.577882
0.577891
0.5779
0.57791
0.57791
0.577919
0.577928
0.577937
0.577946
0.577946
0.577955
0.577964
0.577974
0.577983
0.577983
0.577992
0.578001
0.57801
0.57802
0.57802
0.578029
0.578038
0.578047
0.578057
0.578057
0.578066
0.578075
0.578085
0.578094
0.578094
0.578103
0.578113
0.578122
0.578131
0.578131
0.578141
0.57815
0.578159
0.578169
0.578169
0.578178
0.578188
0.578197
0.578206
0.578206
0.578216
0.578225
0.578235
0.578244
0.578244
0.578254
0.578263
0.578273
0.578282
0.578282
0.578292
0.578301
0.578311
0.57832
0.57832
0.57833
0.57834
0.578349
0.578359
0.578359
0.578369
0.578379
0.578388
0.578398
0.578398
0.578408
0.578417
0.578427
0.578437
0.578437
0.578447
0.578457
0.578466
0.578476
0.578476
0.578486
0.578496
0.578506
0.578515
0.578515
0.578525
0.578535
0.578545
0.578555
0.578555
0.578565
0.578575
0.578585
0.578594
0.578594
0.578604
0.578614
0.578624
0.578634
0.578634
0.578644
0.578654
0.578664
0.578674
0.578674
0.578684
0.578694
0.578704
0.578715
0.578715
0.578725
0.578735
0.578745
0.578755
0.578755
0.578765
0.578775
0.578785
0.578796
0.578796
0.578806
0.578816
0.578826
0.578836
0.578836
0.578847
0.578857
0.578867
0.578877
0.578877
0.578888
0.578898
0.578908
0.578918
0.578918
0.578929
0.578939
0.578949
0.57896
0.57896
0.57897
0.578981
0.578991
0.579001
0.579001
0.579012
0.579022
0.579033
0.579043
0.579043
0.579054
0.579064
0.579075
0.579085
0.579085
0.579096
0.579106
0.579117
0.579127
0.579127
0.579138
0.579148
0.579159
0.57917
0.57917
0.57918
0.579191
0.579201
0.579212
0.579212
0.579223
0.579233
0.579244
0.579255
0.579255
0.579265
0.579276
0.579287
0.579297
0.579297
0.579308
0.579319
0.57933
0.579341
0.579341
0.579351
0.579362
0.579373
0.579384
0.579384
0.579395
0.579406
0.579417
0.579428
0.579428
0.579439
0.57945
0.579461
0.579472
0.579472
0.579483
0.579494
0.579505
0.579516
0.579516
0.579527
0.579538
0.579549
0.57956
0.57956
0.579571
0.579583
0.579594
0.579605
0.579605
0.579616
0.579627
0.579638
0.579649
0.579649
0.579661
0.579672
0.579683
0.579694
0.579694
0.579706
0.579717
0.579728
0.579739
0.579739
0.579751
0.579762
0.579773
0.579785
0.579785
0.579796
0.579807
0.579819
0.57983
0.57983
0.579842
0.579853
0.579865
0.579876
0.579876
0.579888
0.579899
0.57991
0.579922
0.579922
0.579934
0.579945
0.579957
0.579968
0.579968
0.57998
0.579991
0.580003
0.580015
0.580015
0.580026
0.580038
0.58005
0.580061
0.580061
0.580073
0.580085
0.580096
0.580108
0.580108
0.58012
0.580132
0.580143
0.580155
0.580155
0.580167
0.580179
0.580191
0.580202
0.580202
0.580214
0.580226
0.580238
0.58025
0.58025
0.580262
0.580274
0.580286
0.580297
0.580297
0.580309
0.580321
0.580333
0.580345
0.580345
0.580357
0.580369
0.580381
0.580393
0.580393
0.580405
0.580418
0.58043
0.580442
0.580442
0.580454
0.580466
0.580479
0.580491
0.580491
0.580503
0.580515
0.580528
0.58054
0.58054
0.580552
0.580564
0.580577
0.580589
0.580589
0.580601
0.580614
0.580626
0.580639
0.580639
0.580651
0.580663
0.580676
0.580688
0.580688
0.580701
0.580713
0.580726
0.580738
0.580738
0.580751
0.580763
0.580776
0.580788
0.580788
0.580801
0.580813
0.580826
0.580839
0.580839
0.580851
0.580864
0.580877
0.580889
0.580889
0.580902
0.580915
0.580927
0.58094
0.58094
0.580953
0.580966
0.580978
0.580991
0.580991
0.581004
0.581017
0.58103
0.581042
0.581042
0.581055
0.581068
0.581081
0.581094
0.581094
0.581107
0.58112
0.581133
0.581146
0.581146
0.581159
0.581172
0.581185
0.581198
0.581198
0.581211
0.581224
0.581237
0.58125
0.58125
0.581263
0.581276
0.58129
0.581303
0.581303
0.581316
0.581329
0.581342
0.581355
0.581355
0.581369
0.581382
0.581395
0.581408
0.581408
0.581422
0.581435
0.581448
0.581461
0.581461
0.581475
0.581488
0.581501
0.581515
0.581515
0.581528
0.581542
0.581555
0.581569
0.581569
0.581582
0.581596
0.581609
0.581623
0.581623
0.581637
0.58165
0.581664
0.581678
0.581678
0.581691
0.581705
0.581719
0.581732
0.581732
0.581746
0.58176
0.581774
0.581787
0.581787
0.581801
0.581815
0.581829
0.581842
0.581842
0.581856
0.58187
0.581884
0.581898
0.581898
0.581912
0.581926
0.58194
0.581954
0.581954
0.581968
0.581982
0.581996
0.58201
0.58201
0.582024
0.582038
0.582052
0.582066
0.582066
0.58208
0.582094
0.582108
0.582122
0.582122
0.582136
0.582151
0.582165
0.582179
0.582179
0.582193
0.582207
0.582222
0.582236
0.582236
0.58225
0.582265
0.582279
0.582293
0.582293
0.582308
0.582322
0.582336
0.582351
0.582351
0.582365
0.58238
0.582394
0.582409
0.582409
0.582423
0.582438
0.582452
0.582467
0.582467
0.582481
0.582496
0.582511
0.582525
0.582525
0.58254
0.582554
0.582569
0.582584
0.582584
0.582598
0.582613
0.582628
0.582643
0.582643
0.582657
0.582672
0.582687
0.582702
0.582702
0.582716
0.582731
0.582746
0.582761
0.582761
0.582776
0.582791
0.582806
0.582821
0.582821
0.582836
0.582851
0.582866
0.582881
0.582881
0.582896
0.582912
0.582927
0.582942
0.582942
0.582957
0.582972
0.582988
0.583003
0.583003
0.583018
0.583033
0.583048
0.583064
0.583064
0.583079
0.583094
0.58311
0.583125
0.583125
0.58314
0.583156
0.583171
0.583187
0.583187
0.583202
0.583218
0.583233
0.583249
0.583249
0.583264
0.58328
0.583295
0.583311
0.583311
0.583326
0.583342
0.583358
0.583373
0.583373
0.583389
0.583405
0.58342
0.583436
0.583436
0.583452
0.583467
0.583483
0.583499
0.583499
0.583515
0.583531
0.583547
0.583562
0.583562
0.583578
0.583594
0.58361
0.583626
0.583626
0.583642
0.583658
0.583674
0.58369
0.58369
0.583706
0.583722
0.583738
0.583754
0.583754
0.58377
0.583786
0.583803
0.583819
0.583819
0.583835
0.583851
0.583867
0.583884
0.583884
0.5839
0.583916
0.583932
0.583949
0.583949
0.583965
0.583981
0.583997
0.584014
0.584014
0.58403
0.584047
0.584063
0.58408
0.58408
0.584096
0.584113
0.58413
0.584146
0.584146
0.584163
0.584179
0.584196
0.584213
0.584213
0.58423
0.584246
0.584263
0.58428
0.58428
0.584297
0.584313
0.58433
0.584347
0.584347
0.584364
0.584381
0.584398
0.584415
0.584415
0.584431
0.584448
0.584465
0.584482
0.584482
0.584499
0.584516
0.584533
0.58455
0.58455
0.584568
0.584585
0.584602
0.584619
0.584619
0.584636
0.584653
0.58467
0.584688
0.584688
0.584705
0.584722
0.584739
0.584757
0.584757
0.584774
0.584791
0.584809
0.584826
0.584826
0.584844
0.584861
0.584878
0.584896
0.584896
0.584913
0.584931
0.584948
0.584966
0.584966
0.584984
0.585001
0.585019
0.585036
0.585036
0.585054
0.585072
0.585089
0.585107
0.585107
0.585125
0.585143
0.58516
0.585178
0.585178
0.585196
0.585214
0.585232
0.585249
0.585249
0.585267
0.585285
0.585303
0.585321
0.585321
0.585339
0.585357
0.585375
0.585393
0.585393
0.585411
0.585429
0.585447
0.585465
0.585465
0.585484
0.585502
0.58552
0.585539
0.585539
0.585557
0.585575
0.585594
0.585612
0.585612
0.58563
0.585649
0.585667
0.585686
0.585686
0.585704
0.585723
0.585741
0.58576
0.58576
0.585778
0.585797
0.585815
0.585834
0.585834
0.585853
0.585871
0.58589
0.585909
0.585909
0.585927
0.585946
0.585965
0.585983
0.585983
0.586002
0.586021
0.58604
0.586059
0.586059
0.586078
0.586097
0.586116
0.586135
0.586135
0.586153
0.586172
0.586192
0.586211
0.586211
0.58623
0.586249
0.586268
0.586287
0.586287
0.586306
0.586325
0.586344
0.586364
0.586364
0.586383
0.586402
0.586422
0.586441
0.586441
0.58646
0.58648
0.586499
0.586518
0.586518
0.586538
0.586557
0.586577
0.586596
0.586596
0.586616
0.586635
0.586655
0.586674
0.586674
0.586694
0.586713
0.586733
0.586753
0.586753
0.586772
0.586792
0.586812
0.586831
0.586831
0.586851
0.586871
0.586891
0.586911
0.586911
0.586931
0.586951
0.586971
0.586991
0.586991
0.587011
0.587031
0.587051
0.587071
0.587071
0.587091
0.587112
0.587132
0.587152
0.587152
0.587172
0.587192
0.587213
0.587233
0.587233
0.587253
0.587274
0.587294
0.587314
0.587314
0.587335
0.587355
0.587376
0.587396
0.587396
0.587417
0.587437
0.587458
0.587478
0.587478
0.587499
0.587519
0.58754
0.587561
0.587561
0.587581
0.587602
0.587623
0.587644
0.587644
0.587664
0.587685
0.587706
0.587727
0.587727
0.587748
0.587769
0.58779
0.587811
0.587811
0.587832
0.587853
0.587874
0.587895
0.587895
0.587916
0.587937
0.587958
0.587979
0.587979
0.588
0.588021
0.588043
0.588064
0.588064
0.588085
0.588106
0.588128
0.588149
0.588149
0.58817
0.588192
0.588213
0.588235
0.588235
0.588256
0.588277
0.588299
0.58832
0.58832
0.588342
0.588364
0.588385
0.588407
0.588407
0.588429
0.58845
0.588472
0.588494
0.588494
0.588516
0.588538
0.58856
0.588582
0.588582
0.588604
0.588626
0.588648
0.58867
0.58867
0.588692
0.588714
0.588736
0.588758
0.588758
0.58878
0.588802
0.588824
0.588847
0.588847
0.588869
0.588891
0.588913
0.588936
0.588936
0.588958
0.588981
0.589003
0.589025
0.589025
0.589048
0.58907
0.589093
0.589115
0.589115
0.589138
0.58916
0.589183
0.589206
0.589206
0.589228
0.589251
0.589274
0.589296
0.589296
0.589319
0.589342
0.589365
0.589388
0.589388
0.58941
0.589433
0.589456
0.589479
0.589479
0.589502
0.589525
0.589548
0.589571
0.589571
0.589594
0.589617
0.58964
0.589664
0.589664
0.589687
0.58971
0.589733
0.589756
0.589756
0.58978
0.589803
0.589826
0.589849
0.589849
0.589873
0.589896
0.58992
0.589943
0.589943
0.589967
0.58999
0.590014
0.590037
0.590037
0.590061
0.590085
0.590108
0.590132
0.590132
0.590156
0.59018
0.590204
0.590228
0.590228
0.590252
0.590276
0.5903
0.590324
0.590324
0.590348
0.590372
0.590396
0.59042
0.59042
0.590444
0.590468
0.590492
0.590516
0.590516
0.590541
0.590565
0.590589
0.590614
0.590614
0.590638
0.590662
0.590687
0.590711
0.590711
0.590736
0.59076
0.590784
0.590809
0.590809
0.590834
0.590858
0.590883
0.590907
0.590907
0.590932
0.590957
0.590982
0.591006
0.591006
0.591031
0.591056
0.591081
0.591106
0.591106
0.591131
0.591155
0.59118
0.591205
0.591205
0.59123
0.591255
0.59128
0.591306
0.591306
0.591331
0.591356
0.591381
0.591406
0.591406
0.591431
0.591457
0.591482
0.591507
0.591507
0.591533
0.591558
0.591583
0.591609
0.591609
0.591634
0.59166
0.591685
0.591711
0.591711
0.591736
0.591762
0.591788
0.591813
0.591813
0.591839
0.591865
0.591891
0.591917
0.591917
0.591943
0.591969
0.591995
0.592021
0.592021
0.592047
0.592073
0.592099
0.592125
0.592125
0.592151
0.592178
0.592204
0.59223
0.59223
0.592256
0.592283
0.592309
0.592335
0.592335
0.592362
0.592388
0.592414
0.592441
0.592441
0.592467
0.592494
0.59252
0.592547
0.592547
0.592574
0.5926
0.592627
0.592654
0.592654
0.59268
0.592707
0.592734
0.592761
0.592761
0.592788
0.592815
0.592841
0.592868
0.592868
0.592895
0.592922
0.592949
0.592977
0.592977
0.593004
0.593031
0.593058
0.593085
0.593085
0.593112
0.59314
0.593167
0.593194
0.593194
0.593221
0.593249
0.593276
0.593304
0.593304
0.593331
0.593358
0.593386
0.593413
0.593413
0.593441
0.593469
0.593496
0.593524
0.593524
0.593552
0.593579
0.593607
0.593635
0.593635
0.593663
0.593691
0.593719
0.593747
0.593747
0.593775
0.593804
0.593832
0.59386
0.59386
0.593888
0.593916
0.593945
0.593973
0.593973
0.594001
0.59403
0.594058
0.594086
0.594086
0.594115
0.594143
0.594172
0.5942
0.5942
0.594229
0.594258
0.594286
0.594315
0.594315
0.594344
0.594372
0.594401
0.59443
0.59443
0.594459
0.594487
0.594516
0.594545
0.594545
0.594574
0.594603
0.594632
0.594661
0.594661
0.59469
0.594719
0.594749
0.594778
0.594778
0.594807
0.594836
0.594865
0.594895
0.594895
0.594924
0.594953
0.594983
0.595012
0.595012
0.595042
0.595071
0.595101
0.59513
0.59513
0.59516
0.595189
0.595219
0.595249
0.595249
0.595278
0.595308
0.595338
0.595368
0.595368
0.595398
0.595427
0.595457
0.595487
0.595487
0.595518
0.595548
0.595578
0.595608
0.595608
0.595638
0.595669
0.595699
0.595729
0.595729
0.59576
0.59579
0.595821
0.595851
0.595851
0.595882
0.595912
0.595943
0.595973
0.595973
0.596004
0.596035
0.596066
0.596096
0.596096
0.596127
0.596158
0.596189
0.59622
0.59622
0.59625
0.596281
0.596312
0.596343
0.596343
0.596374
0.596405
0.596437
0.596468
0.596468
0.596499
0.59653
0.596561
0.596593
0.596593
0.596624
0.596655
0.596687
0.596718
0.596718
0.59675
0.596781
0.596813
0.596844
0.596844
0.596876
0.596907
0.596939
0.596971
0.596971
0.597002
0.597034
0.597066
0.597098
0.597098
0.597129
0.597161
0.597193
0.597225
0.597225
0.597257
0.597289
0.597321
0.597353
0.597353
0.597385
0.597418
0.59745
0.597482
0.597482
0.597515
0.597547
0.597579
0.597612
0.597612
0.597645
0.597677
0.59771
0.597743