<?xml version="1.0"?>
<VTKFile type="UnstructuredGrid" version="0.1" byte_order="LittleEndian">
<UnstructuredGrid>
<Piece NumberOfPoints="5000" NumberOfCells="4000">
<PointData Scalars="Reaction 0">
<DataArray type="Float32" Name="Reaction 0" format="ascii">
0.577314
0.577314
0.577314
0.577314
0.577315
0.577315
0.577315
0.577315
0.577315
0.577315
0.577315
0.577315
0.577315
0.577315
0.577315
0.577315
0.577315
0.577315
0.577315
0.577315
0.577315
0.577315
0.577315
0.577316
0.577316
0.577316
0.577316
0.577316
0.577316
0.577316
0.577316
0.577316
0.577317
0.577317
0.577317
0.577317
0.577317
0.577317
0.577317
0.577318
0.577318
0.577318
0.577318
0.577318
0.577318
0.577318
0.577319
0.577319
0.577319
0.577319
0.577319
0.57732
0.57732
0.57732
0.57732
0.57732
0.577321
0.577321
0.577321
0.577322
0.577322
0.577322
0.577322
0.577323
0.577323
0.577323
0.577323
0.577323
0.577324
0.577324
0.577324
0.577325
0.577325
0.577325
0.577326
0.577326
0.577326
0.577326
0.577327
0.577327
0.577327
0.577328
0.577328
0.577328
0.577329
0.577329
0.577329
0.57733
0.57733
0.577331
0.577331
0.577331
0.577331
0.577332
0.577332
0.577332
0.577333
0.577333
0.577334
0.577334
0.577334
0.577335
0.577335
0.577336
0.577336
0.577336
0.577337
0.577337
0.577338
0.577338
0.577338
0.577339
0.57734
0.57734
0.577341
0.577341
0.577341
0.577342
0.577342
0.577343
0.577343
0.577344
0.577344
0.577345
0.577345
0.577345
0.577346
0.577347
0.577347
0.577348
0.577348
0.577349
0.577349
0.57735
0.577351
0.577351
0.577351
0.577352
0.577353
0.577353
0.577353
0.577354
0.577355
0.577355
0.577356
0.577356
0.577357
0.577358
0.577358
0.577359
0.577359
0.57736
0.577361
0.577361
0.577362
0.577362
0.577363
0.577364
0.577364
0.577365
0.577365
0.577366
0.577367
0.577368
0.577369
0.577369
0.577369
0.57737
0.577371
0.577372
0.577372
0.577373
0.577374
0.577374
0.577375
0.577375
0.577376
0.577377
0.577378
0.577379
0.577379
0.57738
0.577381
0.577382
0.577382
0.577382
0.577383
0.577384
0.577385
0.577386
0.577386
0.577387
0.577388
0.577389
0.57739
0.57739
0.577391
0.577392
0.577393
0.577394
0.577394
0.577395
0.577396
0.577397
0.577398
0.577398
0.577399
0.5774
0.577401
0.577402
0.577402
0.577403
0.577404
0.577405
0.577406
0.577406
0.577407
0.577408
0.57741
0.577411
0.577411
0.577412
0.577413
0.577414
0.577415
0.577415
0.577416
0.577417
0.577418
0.57742
0.57742
0.577421
0.577422
0.577423
0.577424
0.577424
0.577425
0.577427
0.577428
0.577429
0.577429
0.57743
0.577431
0.577433
0.577434
0.577434
0.577435
0.577436
0.577438
0.577439
0.577439
0.57744
0.577441
0.577443
0.577444
0.577444
0.577445
0.577446
0.577448
0.577449
0.577449
0.57745
0.577452
0.577453
0.577454
0.577454
0.577456
0.577457
0.577458
0.57746
0.57746
0.577461
0.577462
0.577464
0.577465
0.577465
0.577466
0.577468
0.577469
0.577471
0.577471
0.577472
0.577473
0.577475
0.577476
0.577476
0.577478
0.577479
0.577481
0.577482
0.577482
0.577483
0.577485
0.577486
0.577488
0.577488
0.577489
0.577491
0.577492
0.577494
0.577494
0.577495
0.577497
0.577498
0.5775
0.5775
0.577501
0.577503
0.577504
0.577506
0.577506
0.577508
0.577509
0.577511
0.577512
0.577512
0.577514
0.577515
0.577517
0.577519
0.577519
0.57752
0.577522
0.577523
0.577525
0.577525
0.577527
0.577528
0.57753
0.577532
0.577532
0.577533
0.577535
0.577537
0.577538
0.577538
0.57754
0.577542
0.577543
0.577545
0.577545
0.577547
0.577549
0.57755
0.577552
0.577552
0.577554
0.577555
0.577557
0.577559
0.577559
0.577561
0.577562
0.577564
0.577566
0.577566
0.577568
0.57757
0.577571
0.577573
0.577573
0.577575
0.577577
0.577579
0.57758
0.57758
0.577582
0.577584
0.577586
0.577588
0.577588
0.57759
0.577591
0.577593
0.577595
0.577595
0.577597
0.577599
0.577601
0.577603
0.577603
0.577605
0.577607
0.577609
0.577611
0.577611
0.577613
0.577615
0.577617
0.577619
0.577619
0.577621
0.577622
0.577624
0.577626
0.577626
0.577628
0.57763
0.577632
0.577635
0.577635
0.577637
0.577639
0.577641
0.577643
0.577643
0.577645
0.577647
0.577649
0.577651
0.577651
0.577653
0.577655
0.577657
0.577659
0.577659
0.577661
0.577663
0.577666
0.577668
0.577668
0.57767
0.577672
0.577674
0.577676
0.577676
0.577678
0.577681
0.577683
0.577685
0.577685
0.577687
0.577689
0.577691
0.577694
0.577694
0.577696
0.577698
0.5777
0.577702
0.577702
0.577705
0.577707
0.577709
0.577711
0.577711
0.577714
0.577716
0.577718
0.577721
0.577721
0.577723
0.577725
0.577727
0.57773
0.57773
0.577732
0.577734
0.577737
0.577739
0.577739
0.577741
0.577744
0.577746
0.577748
0.577748
0.577751
0.577753
0.577756
0.577758
0.577758
0.57776
0.577763
0.577765
0.577768
0.577768
0.57777
0.577772
0.577775
0.577777
0.577777
0.57778
0.577782
0.577785
0.577787
0.577787
0.57779
0.577792
0.577794
0.577797
0.577797
0.577799
0.577802
0.577805
0.577807
0.577807
0.57781
0.577812
0.577815
0.577817
0.577817
0.57782
0.577822
0.577825
0.577827
0.577827
0.57783
0.577833
0.577835
0.577838
0.577838
0.57784
0.577843
0.577846
0.577848
0.577848
0.577851
0.577854
0.577856
0.577859
0.577859
0.577862
0.577864
0.577867
0.57787
0.57787
0.577872
0.577875
0.577878
0.57788
0.57788
0.577883
0.577886
0.577889
0.577891
0.577891
0.577894
0.577897
0.577899
0.577902
0.577902
0.577905
0.577908
0.577911
0.577913
0.577913
0.577916
0.577919
0.577922
0.577925
0.577925
0.577927
0.57793
0.577933
0.577936
0.577936
0.577939
0.577942
0.577945
0.577947
0.577947
0.57795
0.577953
0.577956
0.577959
0.577959
0.577962
0.577965
0.577968
0.577971
0.577971
0.577974
0.577977
0.577979
0.577982
0.577982
0.577985
0.577988
0.577991
0.577994
0.577994
0.577997
0.578
0.578003
0.578006
0.578006
0.578009
0.578012
0.578015
0.578018
0.578018
0.578022
0.578025
0.578028
0.578031
0.578031
0.578034
0.578037
0.57804
0.578043
0.578043
0.578046
0.578049
0.578052
0.578055
0.578055
0.578059
0.578062
0.578065
0.578068
0.578068
0.578071
0.578074
0.578078
0.578081
0.578081
0.578084
0.578087
0.57809
0.578094
0.578094
0.578097
0.5781
0.578103
0.578106
0.578106
0.57811
0.578113
0.578116
0.578119
0.578119
0.578123
0.578126
0.578129
0.578133
0.578133
0.578136
0.578139
0.578142
0.578146
0.578146
0.578149
0.578152
0.578156
0.578159
0.578159
0.578163
0.578166
0.578169
0.578173
0.578173
0.578176
0.578179
0.578183
0.578186
0.578186
0.57819
0.578193
0.578196
0.5782
0.5782
0.578203
0.578207
0.57821
0.578214
0.578214
0.578217
0.578221
0.578224
0.578228
0.578228
0.578231
0.578235
0.578238
0.578242
0.578242
0.578245
0.578249
0.578252
0.578256
0.578256
0.578259
0.578263
0.578267
0.57827
0.57827
0.578274
0.578277
0.578281
0.578285
0.578285
0.578288
0.578292
0.578295
0.578299
0.578299
0.578303
0.578306
0.57831
0.578314
0.578314
0.578317
0.578321
0.578325
0.578328
0.578328
0.578332
0.578336
0.57834
0.578343
0.578343
0.578347
0.578351
0.578354
0.578358
0.578358
0.578362
0.578366
0.57837
0.578373
0.578373
0.578377
0.578381
0.578385
0.578389
0.578389
0.578392
0.578396
0.5784
0.578404
0.578404
0.578408
0.578412
0.578415
0.578419
0.578419
0.578423
0.578427
0.578431
0.578435
0.578435
0.578439
0.578443
0.578447
0.578451
0.578451
0.578455
0.578458
0.578462
0.578466
0.578466
0.57847
0.578474
0.578478
0.578482
0.578482
0.578486
0.57849
0.578494
0.578498
0.578498
0.578502
0.578506
0.57851
0.578514
0.578514
0.578519
0.578523
0.578527
0.578531
0.578531
0.578535
0.578539
0.578543
0.578547
0.578547
0.578551
0.578555
0.578559
0.578564
0.578564
0.578568
0.578572
0.578576
0.57858
0.57858
0.578584
0.578589
0.578593
0.578597
0.578597
0.578601
0.578605
0.578609
0.578614
0.578614
0.578618
0.578622
0.578626
0.578631
0.578631
0.578635
0.578639
0.578644
0.578648
0.578648
0.578652
0.578657
0.578661
0.578665
0.578665
0.57867
0.578674
0.578678
0.578683
0.578683
0.578687
0.578691
0.578696
0.5787
0.5787
0.578705
0.578709
0.578713
0.578718
0.578718
0.578722
0.578727
0.578731
0.578736
0.578736
0.57874
0.578745
0.578749
0.578754
0.578754
0.578758
0.578762
0.578767
0.578772
0.578772
0.578776
0.578781
0.578785
0.57879
0.57879
0.578794
0.578799
0.578803
0.578808
0.578808
0.578812
0.578817
0.578822
0.578826
0.578826
0.578831
0.578835
0.57884
0.578845
0.578845
0.578849
0.578854
0.578859
0.578863
0.578863
0.578868
0.578873
0.578877
0.578882
0.578882
0.578887
0.578892
0.578896
0.578901
0.578901
0.578906
0.578911
0.578915
0.57892
0.57892
0.578925
0.57893
0.578934
0.578939
0.578939
0.578944
0.578949
0.578954
0.578958
0.578958
0.578963
0.578968
0.578973
0.578978
0.578978
0.578983
0.578988
0.578992
0.578997
0.578997
0.579002
0.579007
0.579012
0.579017
0.579017
0.579022
0.579027
0.579032
0.579037
0.579037
0.579042
0.579047
0.579052
0.579057
0.579057
0.579062
0.579067
0.579072
0.579077
0.579077
0.579082
0.579087
0.579092
0.579097
0.579097
0.579102
0.579107
0.579112
0.579117
0.579117
0.579122
0.579127
0.579132
0.579138
0.579138
0.579143
0.579148
0.579153
0.579158
0.579158
0.579163
0.579168
0.579174
0.579179
0.579179
0.579184
0.579189
0.579194
0.5792
0.5792
0.579205
0.57921
0.579215
0.579221
0.579221
0.579226
0.579231
0.579236
0.579242
0.579242
0.579247
0.579252
0.579258
0.579263
0.579263
0.579268
0.579274
0.579279
0.579284
0.579284
0.57929
0.579295
0.5793
0.579306
0.579306
0.579311
0.579317
0.579322
0.579327
0.579327
0.579333
0.579338
0.579344
0.579349
0.579349
0.579355
0.57936
0.579366
0.579371
0.579371
0.579377
0.579382
0.579388
0.579393
0.579393
0.579399
0.579404
0.57941
0.579415
0.579415
0.579421
0.579426
0.579432
0.579438
0.579438
0.579443
0.579449
0.579454
0.57946
0.57946
0.579466
0.579471
0.579477
0.579483
0.579483
0.579488
0.579494
0.5795
0.579505
0.579505
0.579511
0.579517
0.579522
0.579528
0.579528
0.579534
0.57954
0.579545
0.579551
0.579551
0.579557
0.579563
0.579568
0.579574
0.579574
0.57958
0.579586
0.579592
0.579598
0.579598
0.579603
0.579609
0.579615
0.579621
0.579621
0.579627
0.579633
0.579639
0.579644
0.579644
0.57965
0.579656
0.579662
0.579668
0.579668
0.579674
0.57968
0.579686
0.579692
0.579692
0.579698
0.579704
0.57971
0.579716
0.579716
0.579722
0.579728
0.579734
0.57974
0.57974
0.579746
0.579752
0.579758
0.579764
0.579764
0.57977
0.579776
0.579782
0.579789
0.579789
0.579795
0.579801
0.579807
0.579813
0.579813
0.579819
0.579826
0.579832
0.579838
0.579838
0.579844
0.57985
0.579857
0.579863
0.579863
0.579869
0.579875
0.579882
0.579888
0.579888
0.579894
0.5799
0.579907
0.579913
0.579913
0.579919
0.579926
0.579932
0.579938
0.579938
0.579945
0.579951
0.579957
0.579964
0.579964
0.57997
0.579976
0.579983
0.579989
0.579989
0.579996
0.580002
0.580008
0.580015
0.580015
0.580021
0.580028
0.580034
0.580041
0.580041
0.580047
0.580054
0.58006
0.580067
0.580067
0.580073
0.58008
0.580086
0.580093
0.580093
0.580099
0.580106
0.580113
0.580119
0.580119
0.580126
0.580132
0.580139
0.580146
0.580146
0.580152
0.580159
0.580166
0.580172
0.580172
0.580179
0.580186
0.580192
0.580199
0.580199
0.580206
0.580212
0.580219
0.580226
0.580226
0.580233
0.580239
0.580246
0.580253
0.580253
0.58026
0.580267
0.580273
0.58028
0.58028
0.580287
0.580294
0.580301
0.580308
0.580308
0.580314
0.580321
0.580328
0.580335
0.580335
0.580342
0.580349
0.580356
0.580363
0.580363
0.58037
0.580377
0.580384
0.580391
0.580391
0.580398
0.580404
0.580411
0.580418
0.580418
0.580426
0.580433
0.58044
0.580447
0.580447
0.580454
0.580461
0.580468
0.580475
0.580475
0.580482
0.580489
0.580496
0.580503
0.580503
0.58051
0.580518
0.580525
0.580532
0.580532
0.580539
0.580546
0.580553
0.580561
0.580561
0.580568
0.580575
0.580582
0.58059
0.58059
0.580597
0.580604
0.580611
0.580619
0.580619
0.580626
0.580633
0.580641
0.580648
0.580648
0.580655
0.580663
0.58067
0.580677
0.580677
0.580685
0.580692
0.580699
0.580707
0.580707
0.580714
0.580722
0.580729
0.580736
0.580736
0.580744
0.580751
0.580759
0.580766
0.580766
0.580774
0.580781
0.580789
0.580796
0.580796
0.580804
0.580811
0.580819
0.580826
0.580826
0.580834
0.580841
0.580849
0.580857
0.580857
0.580864
0.580872
0.580879
0.580887
0.580887
0.580895
0.580902
0.58091
0.580918
0.580918
0.580925
0.580933
0.580941
0.580949
0.580949
0.580956
0.580964
0.580972
0.58098
0.58098
0.580988
0.580995
0.581003
0.581011
0.581011
0.581019
0.581027
0.581035
0.581042
0.581042
0.58105
0.581058
0.581066
0.581074
0.581074
0.581082
0.58109
0.581098
0.581106
0.581106
0.581114
0.581121
0.581129
0.581137
0.581137
0.581145
0.581153
0.581161
0.581169
0.581169
0.581177
0.581186
0.581194
0.581202
0.581202
0.58121
0.581218
0.581226
0.581234
0.581234
0.581242
0.58125
0.581258
0.581266
0.581266
0.581275
0.581283
0.581291
0.581299
0.581299
0.581307
0.581316
0.581324
0.581332
0.581332
0.58134
0.581348
0.581357
0.581365
0.581365
0.581373
0.581382
0.58139
0.581398
0.581398
0.581407
0.581415
0.581423
0.581432
0.581432
0.58144
0.581448
0.581457
0.581465
0.581465
0.581474
0.581482
0.58149
0.581499
0.581499
0.581507
0.581516
0.581524
0.581533
0.581533
0.581541
0.58155
0.581558
0.581567
0.581567
0.581575
0.581584
0.581592
0.581601
0.581601
0.58161
0.581618
0.581627
0.581635
0.581635
0.581644
0.581653
0.581661
0.58167
0.58167
0.581679
0.581687
0.581696
0.581705
0.581705
0.581714
0.581722
0.581731
0.58174
0.58174
0.581749
0.581757
0.581766
0.581775
0.581775
0.581784
0.581793
0.581801
0.58181
0.58181
0.581819
0.581828
0.581837
0.581846
0.581846
0.581855
0.581864
0.581872
0.581881
0.581881
0.58189
0.581899
0.581908
0.581917
0.581917
0.581926
0.581935
0.581944
0.581953
0.581953
0.581962
0.581971
0.58198
0.581989
0.581989
0.581999
0.582008
0.582017
0.582026
0.582026
0.582035
0.582044
0.582053
0.582062
0.582062
0.582071
0.582081
0.58209
0.582099
0.582099
0.582108
0.582117
0.582126
0.582136
0.582136
0.582145
0.582154
0.582163
0.582173
0.582173
0.582182
0.582191
0.582201
0.58221
0.58221
0.58222
0.582229
0.582238
0.582248
0.582248
0.582257
0.582267
0.582276
0.582286
0.582286
0.582295
0.582305
0.582314
0.582324
0.582324
0.582333
0.582343
0.582352
0.582362
0.582362
0.582371
0.582381
0.582391
0.5824
0.5824
0.58241
0.582419
0.582429
0.582439
0.582439
0.582448
0.582458
0.582468
0.582477
0.582477
0.582487
0.582497
0.582506
0.582516
0.582516
0.582526
0.582536
0.582545
0.582555
0.582555
0.582565
0.582575
0.582585
0.582594
0.582594
0.582604
0.582614
0.582624
0.582634
0.582634
0.582644
0.582654
0.582664
0.582674
0.582674
0.582683
0.582693
0.582703
0.582713
0.582713
0.582723
0.582733
0.582743
0.582753
0.582753
0.582763
0.582773
0.582784
0.582794
0.582794
0.582804
0.582814
0.582824
0.582834
0.582834
0.582844
0.582854
0.582865
0.582875
0.582875
0.582885
0.582895
0.582905
0.582916
0.582916
0.582926
0.582936
0.582946
0.582957
0.582957
0.582967
0.582977
0.582987
0.582998
0.582998
0.583008
0.583018
0.583029
0.583039
0.583039
0.58305
0.58306
0.58307
0.583081
0.583081
0.583091
0.583102
0.583112
0.583123
0.583123
0.583133
0.583144
0.583154
0.583165
0.583165
0.583175
0.583186
0.583196
0.583207
0.583207
0.583218
0.583228
0.583239
0.583249
0.583249
0.58326
0.583271
0.583281
0.583292
0.583292
0.583303
0.583313
0.583324
0.583335
0.583335
0.583346
0.583356
0.583367
0.583378
0.583378
0.583389
0.583399
0.58341
0.583421
0.583421
0.583432
0.583443
0.583453
0.583464
0.583464
0.583475
0.583486
0.583497
0.583508
0.583508
0.583519
0.58353
0.583541
0.583552
0.583552
0.583563
0.583574
0.583585
0.583596
0.583596
0.583607
0.583618
0.58363
0.583641
0.583641
0.583652
0.583663
0.583674
0.583685
0.583685
0.583697
0.583708
0.583719
0.58373
0.58373
0.583741
0.583753
0.583764
0.583775
0.583775
0.583786
0.583798
0.583809
0.58382
0.58382
0.583832
0.583843
0.583854
0.583866
0.583866
0.583877
0.583889
0.5839
0.583912
0.583912
0.583923
0.583934
0.583946
0.583957
0.583957
0.583969
0.58398
0.583992
0.584003
0.584003
0.584015
0.584027
0.584038
0.58405
0.58405
0.584061
0.584073
0.584085
0.584096
0.584096
0.584108
0.58412
0.584131
0.584143
0.584143
0.584155
0.584167
0.584178
0.58419
0.58419
0.584202
0.584214
0.584225
0.584237
0.584237
0.584249
0.584261
0.584273
0.584285
0.584285
0.584297
0.584308
0.58432
0.584332
0.584332
0.584344
0.584356
0.584368
0.58438
0.58438
0.584392
0.584404
0.584416
0.584428
0.584428
0.58444
0.584452
0.584465
0.584477
0.584477
0.584489
0.584501
0.584513
0.584525
0.584525
0.584537
0.58455
0.584562
0.584574
0.584574
0.584586
0.584598
0.584611
0.584623
0.584623
0.584635
0.584648
0.58466
0.584672
0.584672
0.584685
0.584697
0.584709
0.584722
0.584722
0.584734
0.584746
0.584759
0.584771
0.584771
0.584784
0.584796
0.584809
0.584821
0.584821
0.584834
0.584846
0.584859
0.584871
0.584871
0.584884
0.584896
0.584909
0.584921
0.584921
0.584934
0.584947
0.584959
0.584972
0.584972
0.584985
0.584998
0.58501
0.585023
0.585023
0.585036
0.585049
0.585062
0.585075
0.585075
0.585087
0.5851
0.585113
0.585126
0.585126
0.585139
0.585152
0.585165
0.585178
0.585178
0.585191
0.585204
0.585217
0.58523
0.58523
0.585243
0.585256
0.585269
0.585282
0.585282
0.585295
0.585308
0.585321
0.585334
0.585334
0.585347
0.585361
0.585374
0.585387
0.585387
0.5854
0.585413
0.585427
0.58544
0.58544
0.585453
0.585466
0.58548
0.585493
0.585493
0.585506
0.58552
0.585533
0.585546
0.585546
0.58556
0.585573
0.585586
0.5856
0.5856
0.585613
0.585627
0.58564
0.585654
0.585654
0.585667
0.585681
0.585694
0.585708
0.585708
0.585721
0.585735
0.585749
0.585762
0.585762
0.585776
0.58579
0.585803
0.585817
0.585817
0.585831
0.585844
0.585858
0.585872
0.585872
0.585885
0.585899
0.585913
0.585927
0.585927
0.585941
0.585955
0.585968
0.585982
0.585982
0.585996
0.58601
0.586024
0.586038
0.586038
0.586052
0.586066
0.58608
0.586094
0.586094
0.586108
0.586122
0.586136
0.58615
0.58615
0.586164
0.586178
0.586192
0.586206
0.586206
0.58622
0.586235
0.586249
0.586263
0.586263
0.586277
0.586291
0.586305
0.58632
0.58632
0.586334
0.586348
0.586362
0.586377
0.586377
0.586391
0.586405
0.58642
0.586434
0.586434
0.586448
0.586463
0.586477
0.586492
0.586492
0.586506
0.586521
0.586535
0.58655
0.58655
0.586565
0.586579
0.586594
0.586608
0.586608
0.586623
0.586638
0.586652
0.586667
0.586667
0.586682
0.586697
0.586711
0.586726
0.586726
0.586741
0.586756
0.58677
0.586785
0.586785
0.5868
0.586815
0.58683
0.586845
0.586845
0.586859
0.586874
0.586889
0.586904
0.586904
0.586919
0.586934
0.586949
0.586964
0.586964
0.586979
0.586994
0.587009
0.587024
0.587024
0.587039
0.587054
0.58707
0.587085
0.587085
0.5871
0.587115
0.58713
0.587145
0.587145
0.587161
0.587176
0.587191
0.587207
0.587207
0.587222
0.587237
0.587252
0.587268
0.587268
0.587283
0.587299
0.587314
0.587329
0.587329
0.587345
0.58736
0.587376
0.587391
0.587391
0.587407
0.587422
0.587438
0.587453
0.587453
0.587469
0.587485
0.5875
0.587516
0.587516
0.587531
0.587547
0.587563
0.587579
0.587579
0.587594
0.58761
0.587626
0.587642
0.587642
0.587657
0.587673
0.587689
0.587705
0.587705
0.587721
0.587737
0.587752
0.587768
0.587768
0.587784
0.5878
0.587816
0.587832
0.587832
0.587848
0.587864
0.58788
0.587896
0.587896
0.587912
0.587928
0.587944
0.58796
0.58796
0.587976
0.587993
0.588009
0.588025
0.588025
0.588041
0.588057
0.588074
0.58809
0.58809
0.588106
0.588123
0.588139
0.588155
0.588155
0.588172
0.588188
0.588205
0.588221
0.588221
0.588238
0.588254
0.588271
0.588287
0.588287
0.588304
0.588321
0.588337
0.588354
0.588354
0.58837
0.588387
0.588404
0.58842
0.58842
0.588437
0.588454
0.58847
0.588487
0.588487
0.588504
0.588521
0.588538
0.588554
0.588554
0.588571
0.588588
0.588605
0.588622
0.588622
0.588639
0.588656
0.588673
0.58869
0.58869
0.588707
0.588724
0.588741
0.588758
0.588758
0.588775
0.588792
0.588809
0.588826
0.588826
0.588843
0.58886
0.588877
0.588895
0.588895
0.588912
0.588929
0.588946
0.588964
0.588964
0.588981
0.588998
0.589016
0.589033
0.589033
0.58905
0.589068
0.589085
0.589103
0.589103
0.58912
0.589137
0.589155
0.589172
0.589172
0.58919
0.589208
0.589225
0.589243
0.589243
0.58926
0.589278
0.589296
0.589313
0.589313
0.589331
0.589349
0.589366
0.589384
0.589384
0.589402
0.58942
0.589437
0.589455
0.589455
0.589473
0.589491
0.589509
0.589527
0.589527
0.589545
0.589562
0.58958
0.589598
0.589598
0.589616
0.589634
0.589652
0.58967
0.58967
0.589688
0.589706
0.589724
0.589742
0.589742
0.589761
0.589779
0.589797
0.589815
0.589815
0.589834
0.589852
0.58987
0.589889
0.589889
0.589907
0.589925
0.589944
0.589962
0.589962
0.589981
0.589999
0.590018
0.590036
0.590036
0.590055
0.590073
0.590092
0.590111
0.590111
0.590129
0.590148
0.590166
0.590185
0.590185
0.590204
0.590222
0.590241
0.59026
0.59026
0.590279
0.590297
0.590316
0.590335
0.590335
0.590354
0.590373
0.590392
0.59041
0.59041
0.590429
0.590448
0.590467
0.590486
0.590486
0.590505
0.590524
0.590543
0.590562
0.590562
0.590581
0.590601
0.59062
0.590639
0.590639
0.590658
0.590677
0.590696
0.590716
0.590716
0.590735
0.590754
0.590774
0.590793
0.590793
0.590812
0.590832
0.590851
0.59087
0.59087
0.59089
0.590909
0.590929
0.590948
0.590948
0.590968
0.590987
0.591007
0.591026
0.591026
0.591046
0.591066
0.591085
0.591105
0.591105
0.591125
0.591144
0.591164
0.591184
0.591184
0.591203
0.591223
0.591243
0.591263
0.591263
0.591283
0.591302
0.591322
0.591342
0.591342
0.591362
0.591382
0.591402
0.591422
0.591422
0.591442
0.591462
0.591482
0.591502
0.591502
0.591522
0.591542
0.591562
0.591582
0.591582
0.591603
0.591623
0.591643
0.591664
0.591664
0.591684
0.591704
0.591725
0.591745
0.591745
0.591766
0.591786
0.591807
0.591827
0.591827
0.591848
0.591868
0.591889
0.591909
0.591909
0.59193
0.591951
0.591971
0.591992
0.591992
0.592013
0.592033
0.592054
0.592075
0.592075
0.592096
0.592116
0.592137
0.592158
0.592158
0.592179
0.5922
0.592221
0.592242
0.592242
0.592263
0.592284
0.592305
0.592326
0.592326
0.592347
0.592368
0.592389
0.59241
0.59241
0.592431
0.592452
0.592473
0.592495
0.592495
0.592516
0.592537
0.592558
0.59258
0.59258
0.592601
0.592622
0.592644
0.592665
0.592665
0.592686
0.592708
0.592729
0.592751
0.592751
0.592772
0.592794
0.592815
0.592837
0.592837
0.592858
0.59288
0.592902
0.592923
0.592923
0.592945
0.592967
0.592988
0.59301
0.59301
0.593032
0.593054
0.593076
0.593097
0.593097
0.593119
0.593141
0.593163
0.593185
0.593185
0.593207
0.593229
0.593251
0.593273
0.593273
0.593295
0.593317
0.593339
0.593361
0.593361
0.593383
0.593405
0.593427
0.59345
0.59345
0.593472
0.593494
0.593516
0.593539
0.593539
0.593561
0.593584
0.593606
0.593629
0.593629
0.593651
0.593674
0.593696
0.593719
0.593719
0.593742
0.593764
0.593787
0.593809
0.593809
0.593832
0.593855
0.593878
0.5939
0.5939
0.593923
0.593946
0.593969
0.593992
0.593992
0.594014
0.594037
0.59406
0.594083
0.594083
0.594106
0.594129
0.594152
0.594175
0.594175
0.594198
0.594221
0.594244
0.594268
0.594268
0.594291
0.594314
0.594337
0.59436
0.59436
0.594384
0.594407
0.59443
0.594454
0.594454
0.594477
0.5945
0.594524
0.594547
0.594547
0.594571
0.594594
0.594618
0.594641
0.594641
0.594665
0.594688
0.594712
0.594735
0.594735
0.594759
0.594783
0.594806
0.59483
0.59483
0.594854
0.594878
0.594902
0.594925
0.594925
0.594949
0.594973
0.594997
0.595021
0.595021
0.595045
0.595069
0.595093
0.595117
0.595117
0.595141
0.595165
0.595189
0.595213
0.595213
0.595237
0.595261
0.595285
0.59531
0.59531
0.595334
0.595358
0.595382
0.595407
0.595407
0.595431
0.595455
0.59548
0.595504
0.595504
0.595529
0.595553
0.595578
0.595603
0.595603
0.595627
0.595652
0.595677
0.595701
0.595701
0.595726
0.595751
0.595776
0.595801
0.595801
0.595825
0.59585
0.595875
0.5959
0.5959
0.595925
0.59595
0.595975
0.596
0.596
0.596025
0.59605
0.596075
0.5961
0.5961
0.596125
0.596151
0.596176
0.596201
0.596201
0.596226
0.596252
0.596277
0.596302
0.596302
0.596327
0.596353
0.596378
0.596404
0.596404
0.596429
0.596455
0.59648
0.596506
0.596506
0.596531
0.596557
0.596582
0.596608
0.596608
0.596634
0.596659
0.596685
0.596711
0.596711
0.596737
0.596762
0.596788
0.596814
0.596814
0.59684
0.596866
0.596892
0.596918
0.596918
0.596944
0.59697
0.596996
0.597022
0.597022
0.597048
0.597074
0.5971
0.597126
0.597126
0.597153
0.597179
0.597205
0.597231
0.597231
0.597257
0.597284
0.59731
0.597336
0.597336
0.597363
0.597389
0.597416
0.597442
0.597442
0.597469
0.597495
0.597522
0.597548
0.597548
0.597575
0.597602
0.597628
0.597655
0.597655
0.597682
0.597709
0.597736
0.597763
0.597763
0.59779
0.597817
0.597844
0.597871
0.597871
0.597898
0.597925
0.597952
0.597979
0.597979
0.598006
0.598033
0.598061
0.598088
0.598088
0.598115
0.598142
0.59817
0.598197
0.598197
0.598224
0.598252
0.598279
0.598307
0.598307
0.598334
0.598362
0.598389
0.598417
0.598417
0.598444
0.598472
0.5985
0.598527
0.598527
0.598555
0.598583
0.59861
0.598638
0.598638
0.598666
0.598694
0.598722
0.59875
0.59875
0.598777
0.598805
0.598833
0.598861
0.598861
0.598889
0.598918
0.598946
0.598974
0.598974
0.599002
0.59903
0.599058
0.599086
0.599086
0.599115
0.599143
0.599171
0.5992
0.5992
0.599228
0.599256
0.599285
0.599313
0.599313
0.599342
0.59937
0.599399
0.599427
0.599427
0.599456
0.599485
0.599513
0.599542
0.599542
0.59957
0.599599
0.599628
0.599657
0.599657
0.599685
0.599714
0.599743
0.599772
0.599772
0.599801
0.59983
0.599859
0.599888
0.599888
0.599918
0.599947
0.599976
0.600005
0.600005
0.600035
0.600064
0.600093
0.600123
0.600123
0.600152
0.600182
0.600211
0.600241
0.600241
0.60027
0.6003
0.600329
0.600359
0.600359
0.600388
0.600418
0.600448
0.600477
0.600477
0.600507
0.600537
0.600567
0.600596
0.600596
0.600626
0.600656
0.600686
0.600716
0.600716
0.600746
0.600776
0.600806
0.600836
0.600836
0.600866
0.600896
0.600926
0.600957
0.600957
0.600987
0.601017
0.601047
0.601078
0.601078
0.601108
0.601138
0.601169
0.601199
0.601199
0.60123
0.60126
0.601291
0.601321
0.601321
0.601352
0.601382
0.601413
0.601444
0.601444
0.601474
0.601505
0.601536
0.601566
0.601566
0.601597
0.601628
0.601659
0.60169
0.60169
0.601721
0.601752
0.601783
0.601814
0.601814
0.601845
0.601876
0.601907
0.601938
0.601938
0.601969
0.602
0.602031
0.602063
0.602063
0.602094
0.602125
0.602157
0.602188
0.602188
0.60222
0.602251
0.602283
0.602315
0.602315
0.602346
0.602378
0.60241
0.602441
0.602441
0.602473
0.602505
0.602537
0.602569
0.602569
0.602601
0.602633
0.602665
0.602696
0.602696
0.602728
0.602761
0.602793
0.602825
0.602825
0.602857
0.602889
0.602921
0.602953
0.602953
0.602986
0.603018
0.60305
0.603083
0.603083
0.603115
0.603147
0.60318
0.603212
0.603212
0.603245
0.603277
0.60331
0.603342
0.603342
0.603375
0.603408
0.60344
0.603473
0.603473
0.603506
0.603539
0.603571
0.603604
0.603604
0.603637
0.60367
0.603703
0.603736
0.603736
0.603769
0.603802
0.603835
0.603868
0.603868
0.603901
0.603934
0.603968
0.604001
0.604001
0.604034
0.604067
0.604101
0.604134
0.604134
0.604167
0.604201
0.604234
0.604268
0.604268
0.604301
0.604335
0.604368
0.604402
0.604402
0.604435
0.604469
0.604503
0.604536
0.604536
0.60457
0.604604
0.604638
0.604672
0.604672
0.604706
0.60474
0.604774
0.604808
0.604808
0.604843
0.604877
0.604911
0.604945
0.604945
0.60498
0.605014
0.605048
0.605083
0.605083
0.605117
0.605151
0.605186
0.60522
0.60522
0.605255
0.605289
0.605324
0.605359
0.605359
0.605393
0.605428
0.605463
0.605497
0.605497
0.605532
0.605567
0.605602
0.605637
0.605637
0.605672
0.605707
0.605741
0.605776
0.605776
0.605812
0.605847
0.605882
0.605917
0.605917
0.605952
0.605987
0.606022
0.606058
0.606058
0.606093
0.606128
0.606164
0.606199
0.606199
0.606234
0.60627
0.606305
0.606341
0.606341
0.606376
0.606412
0.606448
0.606483
0.606483
0.606519
0.606555
0.60659
0.606626
0.606626
0.606662
0.606698
0.606734
0.60677
0.60677
0.606805
0.606841
0.606877
0.606913
0.606913
0.60695
0.606986
0.607022
0.607058
0.607058
0.607094
0.607131
0.607167
0.607204
0.607204
0.60724
0.607277
0.607313
0.60735
0.60735
0.607386
0.607423
0.60746
0.607497
0.607497
0.607533
0.60757
0.607607
0.607644
0.607644
0.607681
0.607718
0.607755
0.607792
0.607792
0.607829
0.607866
0.607903
0.60794
0.60794
0.607977
0.608014
0.608051
0.608089
0.608089
0.608126
0.608163
0.6082
0.608238
0.608238
0.608275
0.608313
0.60835
0.608388
0.608388
0.608425
0.608463
0.6085
0.608538
0.608538
0.608576
0.608613
0.608651
0.608689
0.608689
0.608727
0.608765
0.608803
0.60884
0.60884
0.608878
0.608916
0.608954
0.608992
0.608992
0.609031
0.609069
0.609107
0.609145
0.609145
0.609183
0.609221
0.60926
0.609298
0.609298
0.609336
0.609375
0.609413
0.609451
0.609451
0.60949
0.609528
0.609567
0.609606
0.609606
0.609644
0.609683
0.609722
0.609761
0.609761
0.6098
0.609839
0.609878
0.609917
0.609917
0.609956
0.609995
0.610034
0.610073
0.610073
0.610112
0.610152
0.610191
0.61023
0.61023
0.610269
0.610309
0.610348
0.610388
0.610388
0.610427
0.610467
0.610506
0.610546
0.610546
0.610585
0.610625
0.610665
0.610704
0.610704
0.610744
0.610784
0.610823
0.610863
0.610863
0.610903
0.610943
0.610983
0.611023
0.611023
0.611063
0.611103
0.611143
0.611183
0.611183
0.611223
0.611264
0.611304
0.611344
0.611344
0.611384
0.611425
0.611465
0.611505
0.611505
0.611546
0.611586
0.611627
0.611667
0.611667
0.611708
0.611748
0.611789
0.61183
0.61183
0.61187
0.611911
0.611952
0.611992
0.611992
0.612033
0.612074
0.612115
0.612156
0.612156
0.612197
0.612238
0.612279
0.61232
0.61232
0.612361
0.612402
0.612444
0.612485
0.612485
0.612527
0.612568
0.612609
0.612651
0.612651
0.612693
0.612734
0.612776
0.612818
0.612818
0.612859
0.612901
0.612943
0.612985
0.612985
0.613026
0.613068
0.61311
0.613152
0.613152
0.613194
0.613236
0.613278
0.61332
0.61332
0.613362
0.613404
0.613447
0.613489
0.613489
0.613531
0.613573
0.613616
0.613658
0.613658
0.6137
0.613743
0.613785
0.613828
0.613828
0.61387
0.613913
0.613955
0.613998
0.613998
0.614041
0.614083
0.614126
0.614169
0.614169
0.614212
0.614255
0.614297
0.61434
0.61434
0.614383
0.614426
0.614469
0.614512
0.614512
0.614555
0.614598
0.614642
0.614685
0.614685
0.614728
0.614771
0.614815
0.614858
0.614858
0.614901
0.614945
0.614988
0.615032
0.615032
0.615075
0.615119
0.615162
0.615206
0.615206
0.61525
0.615294
0.615338
0.615381
0.615381
0.615425
0.615469
0.615514
0.615558
0.615558
0.615602
0.615646
0.61569
0.615734
0.615734
0.615779
0.615823
0.615867
0.615912
0.615912
0.615956
0.616
0.616045
0.616089
0.616089
0.616134
0.616178
0.616223
0.616268
0.616268
0.616312
0.616357
0.616402
0.616447
0.616447
0.616491
0.616536
0.616581
0.616626
0.616626
0.616671
0.616716
0.616761
0.616806
0.616806
0.616851
0.616896
0.616941
0.616987
0.616987
0.617032
0.617077
0.617122
0.617168
0.617168
0.617213
0.617258
0.617304
0.617349
0.617349
0.617395
0.61744
0.617486
0.617532
0.617532
0.617577
0.617623
0.617669
0.617714
0.617714
0.61776
0.617806
0.617852
0.617898
0.617898
0.617944
0.61799
0.618036
0.618082
0.618082
0.618128
0.618174
0.618221
0.618267
0.618267
0.618314
0.61836
0.618407
0.618453
0.618453
0.6185
0.618546