<?xml version="1.0"?>
<VTKFile type="UnstructuredGrid" version="0.1" byte_order="LittleEndian">
<UnstructuredGrid>
<Piece NumberOfPoints="5000" NumberOfCells="4000">
<PointData Scalars="Reaction 0">
<DataArray type="Float32" Name="Reaction 0" format="ascii">
0.566199
0.566199
0.566199
0.566199
0.566199
0.566199
0.566199
0.566199
0.566199
0.566199
0.566199
0.566199
0.566199
0.566199
0.566199
0.566199
0.566199
0.566199
0.566199
0.566199
0.566199
0.566199
0.566199
0.566199
0.566199
0.566199
0.566199
0.566199
0.566199
0.566199
0.566199
0.566199
0.566199
0.566199
0.566199
0.566199
0.566199
0.566199
0.566199
0.566199
0.566199
0.566199
0.566199
0.566199
0.566199
0.566199
0.566199
0.566199
0.5662
0.5662
0.5662
0.5662
0.5662
0.5662
0.5662
0.5662
0.5662
0.5662
0.5662
0.5662
0.5662
0.5662
0.5662
0.5662
0.5662
0.5662
0.5662
0.5662
0.5662
0.5662
0.5662
0.5662
0.5662
0.5662
0.5662
0.5662
0.566201
0.566201
0.566201
0.566201
0.566201
0.566201
0.566201
0.566201
0.566201
0.566201
0.566201
0.566201
0.566201
0.566201
0.566201
0.566201
0.566201
0.566201
0.566201
0.566201
0.566202
0.566202
0.566202
0.566202
0.566202
0.566202
0.566202
0.566202
0.566202
0.566202
0.566202
0.566202
0.566202
0.566202
0.566202
0.566202
0.566203
0.566203
0.566203
0.566203
0.566203
0.566203
0.566203
0.566203
0.566203
0.566203
0.566203
0.566203
0.566203
0.566203
0.566204
0.566204
0.566204
0.566204
0.566204
0.566204
0.566204
0.566204
0.566204
0.566204
0.566204
0.566204
0.566204
0.566205
0.566205
0.566205
0.566205
0.566205
0.566205
0.566205
0.566205
0.566205
0.566205
0.566205
0.566205
0.566206
0.566206
0.566206
0.566206
0.566206
0.566206
0.566206
0.566206
0.566206
0.566206
0.566206
0.566207
0.566207
0.566207
0.566207
0.566207
0.566207
0.566207
0.566207
0.566207
0.566207
0.566208
0.566208
0.566208
0.566208
0.566208
0.566208
0.566208
0.566208
0.566208
0.566209
0.566209
0.566209
0.566209
0.566209
0.566209
0.566209
0.566209
0.566209
0.566209
0.56621
0.56621
0.56621
0.56621
0.56621
0.56621
0.56621
0.56621
0.566211
0.566211
0.566211
0.566211
0.566211
0.566211
0.566211
0.566211
0.566212
0.566212
0.566212
0.566212
0.566212
0.566212
0.566212
0.566212
0.566212
0.566213
0.566213
0.566213
0.566213
0.566213
0.566213
0.566213
0.566214
0.566214
0.566214
0.566214
0.566214
0.566214
0.566214
0.566214
0.566215
0.566215
0.566215
0.566215
0.566215
0.566215
0.566215
0.566216
0.566216
0.566216
0.566216
0.566216
0.566216
0.566217
0.566217
0.566217
0.566217
0.566217
0.566217
0.566217
0.566217
0.566218
0.566218
0.566218
0.566218
0.566218
0.566218
0.566219
0.566219
0.566219
0.566219
0.566219
0.566219
0.56622
0.56622
0.56622
0.56622
0.56622
0.56622
0.56622
0.566221
0.566221
0.566221
0.566221
0.566221
0.566221
0.566222
0.566222
0.566222
0.566222
0.566222
0.566222
0.566223
0.566223
0.566223
0.566223
0.566223
0.566223
0.566224
0.566224
0.566224
0.566224
0.566224
0.566225
0.566225
0.566225
0.566225
0.566225
0.566225
0.566225
0.566226
0.566226
0.566226
0.566226
0.566226
0.566227
0.566227
0.566227
0.566227
0.566227
0.566228
0.566228
0.566228
0.566228
0.566228
0.566228
0.566229
0.566229
0.566229
0.566229
0.566229
0.56623
0.56623
0.56623
0.56623
0.56623
0.566231
0.566231
0.566231
0.566231
0.566231
0.566232
0.566232
0.566232
0.566232
0.566232
0.566233
0.566233
0.566233
0.566233
0.566233
0.566234
0.566234
0.566234
0.566234
0.566234
0.566235
0.566235
0.566235
0.566235
0.566235
0.566236
0.566236
0.566236
0.566236
0.566236
0.566237
0.566237
0.566237
0.566237
0.566238
0.566238
0.566238
0.566238
0.566238
0.566239
0.566239
0.566239
0.566239
0.566239
0.56624
0.56624
0.56624
0.56624
0.56624
0.566241
0.566241
0.566241
0.566242
0.566242
0.566242
0.566242
0.566243
0.566243
0.566243
0.566243
0.566243
0.566244
0.566244
0.566244
0.566244
0.566245
0.566245
0.566245
0.566245
0.566245
0.566246
0.566246
0.566246
0.566246
0.566247
0.566247
0.566247
0.566248
0.566248
0.566248
0.566248
0.566248
0.566249
0.566249
0.566249
0.566249
0.56625
0.56625
0.56625
0.56625
0.566251
0.566251
0.566251
0.566251
0.566252
0.566252
0.566252
0.566252
0.566252
0.566253
0.566253
0.566253
0.566254
0.566254
0.566254
0.566254
0.566255
0.566255
0.566255
0.566255
0.566256
0.566256
0.566256
0.566256
0.566257
0.566257
0.566257
0.566258
0.566258
0.566258
0.566258
0.566259
0.566259
0.566259
0.566259
0.56626
0.56626
0.56626
0.56626
0.566261
0.566261
0.566261
0.566262
0.566262
0.566262
0.566262
0.566263
0.566263
0.566263
0.566264
0.566264
0.566264
0.566265
0.566265
0.566265
0.566265
0.566266
0.566266
0.566266
0.566266
0.566267
0.566267
0.566267
0.566267
0.566268
0.566268
0.566269
0.566269
0.566269
0.566269
0.56627
0.56627
0.56627
0.56627
0.566271
0.566271
0.566271
0.566272
0.566272
0.566272
0.566273
0.566273
0.566273
0.566273
0.566274
0.566274
0.566274
0.566275
0.566275
0.566275
0.566276
0.566276
0.566276
0.566276
0.566277
0.566277
0.566278
0.566278
0.566278
0.566278
0.566279
0.566279
0.566279
0.566279
0.56628
0.56628
0.566281
0.566281
0.566281
0.566281
0.566282
0.566282
0.566283
0.566283
0.566283
0.566283
0.566284
0.566284
0.566284
0.566285
0.566285
0.566285
0.566286
0.566286
0.566286
0.566287
0.566287
0.566288
0.566288
0.566288
0.566288
0.566289
0.566289
0.566289
0.56629
0.56629
0.56629
0.566291
0.566291
0.566291
0.566292
0.566292
0.566293
0.566293
0.566293
0.566293
0.566294
0.566294
0.566294
0.566295
0.566295
0.566296
0.566296
0.566296
0.566296
0.566297
0.566297
0.566298
0.566298
0.566298
0.566299
0.566299
0.566299
0.566299
0.5663
0.5663
0.566301
0.566301
0.566301
0.566302
0.566302
0.566303
0.566303
0.566303
0.566303
0.566304
0.566304
0.566305
0.566305
0.566305
0.566306
0.566306
0.566307
0.566307
0.566307
0.566308
0.566308
0.566308
0.566308
0.566309
0.566309
0.56631
0.56631
0.56631
0.566311
0.566311
0.566312
0.566312
0.566312
0.566313
0.566313
0.566314
0.566314
0.566314
0.566314
0.566315
0.566315
0.566316
0.566316
0.566316
0.566317
0.566317
0.566318
0.566318
0.566318
0.566319
0.566319
0.56632
0.56632
0.56632
0.566321
0.566321
0.566322
0.566322
0.566322
0.566323
0.566323
0.566324
0.566324
0.566324
0.566325
0.566325
0.566326
0.566326
0.566326
0.566327
0.566327
0.566328
0.566328
0.566328
0.566329
0.566329
0.56633
0.56633
0.56633
0.566331
0.566331
0.566332
0.566332
0.566332
0.566333
0.566333
0.566334
0.566334
0.566334
0.566335
0.566335
0.566336
0.566336
0.566336
0.566337
0.566337
0.566338
0.566338
0.566338
0.566339
0.566339
0.56634
0.56634
0.56634
0.566341
0.566341
0.566342
0.566342
0.566343
0.566343
0.566344
0.566344
0.566344
0.566345
0.566345
0.566346
0.566346
0.566346
0.566347
0.566347
0.566348
0.566348
0.566348
0.566349
0.56635
0.56635
0.566351
0.566351
0.566351
0.566352
0.566352
0.566353
0.566353
0.566353
0.566354
0.566354
0.566355
0.566355
0.566356
0.566356
0.566357
0.566357
0.566357
0.566358
0.566358
0.566359
0.566359
0.566359
0.56636
0.566361
0.566361
0.566362
0.566362
0.566362
0.566363
0.566363
0.566364
0.566364
0.566365
0.566365
0.566366
0.566366
0.566366
0.566367
0.566367
0.566368
0.566369
0.566369
0.566369
0.56637
0.56637
0.566371
0.566371
0.566372
0.566372
0.566373
0.566373
0.566373
0.566374
0.566374
0.566375
0.566376
0.566376
0.566376
0.566377
0.566377
0.566378
0.566378
0.566379
0.566379
0.56638
0.56638
0.56638
0.566381
0.566382
0.566382
0.566383
0.566383
0.566383
0.566384
0.566385
0.566385
0.566385
0.566386
0.566386
0.566387
0.566388
0.566388
0.566388
0.566389
0.566389
0.56639
0.56639
0.566391
0.566391
0.566392
0.566393
0.566393
0.566393
0.566394
0.566394
0.566395
0.566395
0.566396
0.566396
0.566397
0.566398
0.566398
0.566398
0.566399
0.5664
0.5664
0.5664
0.566401
0.566401
0.566402
0.566403
0.566403
0.566403
0.566404
0.566405
0.566405
0.566405
0.566406
0.566407
0.566407
0.566408
0.566408
0.566408
0.566409
0.56641
0.56641
0.56641
0.566411
0.566412
0.566412
0.566413
0.566413
0.566414
0.566414
0.566415
0.566416
0.566416
0.566416
0.566417
0.566418
0.566418
0.566418
0.566419
0.56642
0.56642
0.566421
0.566421
0.566422
0.566422
0.566423
0.566424
0.566424
0.566424
0.566425
0.566426
0.566426
0.566426
0.566427
0.566428
0.566428
0.566429
0.566429
0.56643
0.56643
0.566431
0.566432
0.566432
0.566433
0.566433
0.566434
0.566435
0.566435
0.566435
0.566436
0.566437
0.566437
0.566437
0.566438
0.566439
0.566439
0.56644
0.56644
0.566441
0.566442
0.566442
0.566443
0.566443
0.566444
0.566444
0.566445
0.566446
0.566446
0.566447
0.566447
0.566448
0.566449
0.566449
0.566449
0.56645
0.566451
0.566452
0.566452
0.566452
0.566453
0.566454
0.566454
0.566454
0.566455
0.566456
0.566457
0.566457
0.566457
0.566458
0.566459
0.566459
0.56646
0.56646
0.566461
0.566462
0.566462
0.566463
0.566463
0.566464
0.566465
0.566465
0.566466
0.566466
0.566467
0.566468
0.566468
0.566469
0.566469
0.56647
0.566471
0.566471
0.566472
0.566472
0.566473
0.566474
0.566474
0.566475
0.566475
0.566476
0.566477
0.566477
0.566478
0.566478
0.566479
0.56648
0.56648
0.566481
0.566481
0.566482
0.566483
0.566483
0.566484
0.566484
0.566485
0.566486
0.566487
0.566487
0.566487
0.566488
0.566489
0.56649
0.56649
0.56649
0.566491
0.566492
0.566493
0.566493
0.566493
0.566494
0.566495
0.566496
0.566497
0.566497
0.566497
0.566498
0.566499
0.5665
0.5665
0.566501
0.566501
0.566502
0.566503
0.566503
0.566504
0.566505
0.566505
0.566506
0.566506
0.566507
0.566508
0.566509
0.566509
0.566509
0.56651
0.566511
0.566512
0.566513
0.566513
0.566513
0.566514
0.566515
0.566516
0.566516
0.566517
0.566517
0.566518
0.566519
0.566519
0.56652
0.566521
0.566522
0.566522
0.566522
0.566523
0.566524
0.566525
0.566526
0.566526
0.566527
0.566527
0.566528
0.566529
0.566529
0.56653
0.566531
0.566532
0.566532
0.566532
0.566533
0.566534
0.566535
0.566536
0.566536
0.566537
0.566537
0.566538
0.566539
0.566539
0.56654
0.566541
0.566542
0.566542
0.566542
0.566543
0.566544
0.566545
0.566546
0.566546
0.566547
0.566548
0.566548
0.566549
0.566549
0.56655
0.566551
0.566552
0.566553
0.566553
0.566554
0.566554
0.566555
0.566556
0.566556
0.566557
0.566558
0.566559
0.56656
0.56656
0.566561
0.566562
0.566562
0.566563
0.566563
0.566564
0.566565
0.566566
0.566567
0.566567
0.566568
0.566569
0.566569
0.56657
0.56657
0.566571
0.566572
0.566573
0.566574
0.566574
0.566575
0.566576
0.566577
0.566578
0.566578
0.566578
0.566579
0.56658
0.566581
0.566581
0.566582
0.566583
0.566584
0.566585
0.566585
0.566586
0.566587
0.566588
0.566588
0.566588
0.566589
0.56659
0.566591
0.566592
0.566592
0.566593
0.566594
0.566595
0.566596
0.566596
0.566597
0.566598
0.566599
0.5666
0.5666
0.5666
0.566601
0.566602
0.566603
0.566603
0.566604
0.566605
0.566606
0.566607
0.566607
0.566608
0.566609
0.56661
0.566611
0.566611
0.566612
0.566613
0.566614
0.566615
0.566615
0.566615
0.566616
0.566617
0.566618
0.566618
0.566619
0.56662
0.566621
0.566622
0.566622
0.566623
0.566624
0.566625
0.566626
0.566626
0.566627
0.566628
0.566629
0.56663
0.56663
0.566631
0.566632
0.566633
0.566634
0.566634
0.566635
0.566636
0.566637
0.566638
0.566638
0.566639
0.56664
0.566641
0.566642
0.566642
0.566643
0.566644
0.566645
0.566646
0.566646
0.566647
0.566648
0.566649
0.56665
0.56665
0.566651
0.566652
0.566653
0.566654
0.566654
0.566655
0.566656
0.566657
0.566658
0.566658
0.566659
0.56666
0.566661
0.566662
0.566662
0.566663
0.566664
0.566665
0.566666
0.566666
0.566667
0.566668
0.566669
0.56667
0.56667
0.566671
0.566672
0.566673
0.566674
0.566674
0.566675
0.566676
0.566677
0.566678
0.566678
0.566679
0.56668
0.566681
0.566682
0.566682
0.566683
0.566684
0.566685
0.566686
0.566686
0.566687
0.566688
0.566689
0.56669
0.56669
0.566691
0.566693
0.566694
0.566695
0.566695
0.566696
0.566697
0.566698
0.566699
0.566699
0.5667
0.566701
0.566702
0.566703
0.566703
0.566704
0.566705
0.566706
0.566707
0.566707
0.566708
0.566709
0.566711
0.566712
0.566712
0.566713
0.566714
0.566715
0.566716
0.566716
0.566717
0.566718
0.566719
0.56672
0.56672
0.566721
0.566722
0.566723
0.566725
0.566725
0.566726
0.566727
0.566728
0.566729
0.566729
0.56673
0.566731
0.566732
0.566733
0.566733
0.566734
0.566736
0.566737
0.566738
0.566738
0.566739
0.56674
0.566741
0.566742
0.566742
0.566743
0.566744
0.566746
0.566747
0.566747
0.566748
0.566749
0.56675
0.566751
0.566751
0.566752
0.566753
0.566755
0.566756
0.566756
0.566757
0.566758
0.566759
0.56676
0.56676
0.566761
0.566763
0.566764
0.566765
0.566765
0.566766
0.566767
0.566768
0.566769
0.566769
0.56677
0.566772
0.566773
0.566774
0.566774
0.566775
0.566776
0.566777
0.566779
0.566779
0.56678
0.566781
0.566782
0.566783
0.566783
0.566784
0.566786
0.566787
0.566788
0.566788
0.566789
0.56679
0.566791
0.566793
0.566793
0.566794
0.566795
0.566796
0.566797
0.566797
0.566798
0.5668
0.566801
0.566802
0.566802
0.566803
0.566804
0.566806
0.566807
0.566807
0.566808
0.566809
0.56681
0.566811
0.566811
0.566813
0.566814
0.566815
0.566816
0.566816
0.566817
0.566819
0.56682
0.566821
0.566821
0.566822
0.566824
0.566825
0.566826
0.566826
0.566827
0.566828
0.56683
0.566831
0.566831
0.566832
0.566833
0.566834
0.566836
0.566836
0.566837
0.566838
0.566839
0.566841
0.566841
0.566842
0.566843
0.566844
0.566846
0.566846
0.566847
0.566848
0.566849
0.566851
0.566851
0.566852
0.566853
0.566854
0.566855
0.566855
0.566857
0.566858
0.566859
0.56686
0.56686
0.566862
0.566863
0.566864
0.566866
0.566866
0.566867
0.566868
0.566869
0.566871
0.566871
0.566872
0.566873
0.566874
0.566876
0.566876
0.566877
0.566878
0.566879
0.566881
0.566881
0.566882
0.566883
0.566885
0.566886
0.566886
0.566887
0.566888
0.56689
0.566891
0.566891
0.566892
0.566893
0.566895
0.566896
0.566896
0.566897
0.566899
0.5669
0.566901
0.566901
0.566903
0.566904
0.566905
0.566907
0.566907
0.566908
0.566909
0.566911
0.566912
0.566912
0.566913
0.566914
0.566916
0.566917
0.566917
0.566918
0.56692
0.566921
0.566922
0.566922
0.566924
0.566925
0.566926
0.566928
0.566928
0.566929
0.56693
0.566932
0.566933
0.566933
0.566934
0.566936
0.566937
0.566938
0.566938
0.56694
0.566941
0.566942
0.566944
0.566944
0.566945
0.566947
0.566948
0.566949
0.566949
0.566951
0.566952
0.566953
0.566955
0.566955
0.566956
0.566957
0.566959
0.56696
0.56696
0.566962
0.566963
0.566964
0.566966
0.566966
0.566967
0.566968
0.56697
0.566971
0.566971
0.566973
0.566974
0.566975
0.566977
0.566977
0.566978
0.566979
0.566981
0.566982
0.566982
0.566984
0.566985
0.566986
0.566988
0.566988
0.566989
0.566991
0.566992
0.566993
0.566993
0.566995
0.566996
0.566998
0.566999
0.566999
0.567001
0.567002
0.567003
0.567005
0.567005
0.567006
0.567008
0.567009
0.56701
0.56701
0.567012
0.567013
0.567015
0.567016
0.567016
0.567018
0.567019
0.56702
0.567022
0.567022
0.567023
0.567025
0.567026
0.567028
0.567028
0.567029
0.567031
0.567032
0.567033
0.567033
0.567035
0.567036
0.567038
0.567039
0.567039
0.567041
0.567042
0.567044
0.567045
0.567045
0.567047
0.567048
0.56705
0.567051
0.567051
0.567053
0.567054
0.567055
0.567057
0.567057
0.567058
0.56706
0.567061
0.567063
0.567063
0.567064
0.567066
0.567067
0.567069
0.567069
0.56707
0.567072
0.567073
0.567075
0.567075
0.567076
0.567078
0.567079
0.567081
0.567081
0.567082
0.567084
0.567085
0.567087
0.567087
0.567088
0.56709
0.567091
0.567093
0.567093
0.567094
0.567096
0.567097
0.567099
0.567099
0.567101
0.567102
0.567104
0.567105
0.567105
0.567107
0.567108
0.56711
0.567111
0.567111
0.567113
0.567114
0.567116
0.567117
0.567117
0.567119
0.567121
0.567122
0.567124
0.567124
0.567125
0.567127
0.567128
0.56713
0.56713
0.567131
0.567133
0.567135
0.567136
0.567136
0.567138
0.567139
0.567141
0.567142
0.567142
0.567144
0.567146
0.567147
0.567149
0.567149
0.56715
0.567152
0.567153
0.567155
0.567155
0.567157
0.567158
0.56716
0.567161
0.567161
0.567163
0.567165
0.567166
0.567168
0.567168
0.567169
0.567171
0.567173
0.567174
0.567174
0.567176
0.567177
0.567179
0.567181
0.567181
0.567182
0.567184
0.567186
0.567187
0.567187
0.567189
0.56719
0.567192
0.567194
0.567194
0.567195
0.567197
0.567199
0.5672
0.5672
0.567202
0.567203
0.567205
0.567207
0.567207
0.567208
0.56721
0.567212
0.567213
0.567213
0.567215
0.567217
0.567218
0.56722
0.56722
0.567222
0.567223
0.567225
0.567227
0.567227
0.567228
0.56723
0.567232
0.567233
0.567233
0.567235
0.567237
0.567238
0.56724
0.56724
0.567242
0.567243
0.567245
0.567247
0.567247
0.567248
0.56725
0.567252
0.567253
0.567253
0.567255
0.567257
0.567259
0.56726
0.56726
0.567262
0.567264
0.567265
0.567267
0.567267
0.567269
0.56727
0.567272
0.567274
0.567274
0.567275
0.567277
0.567279
0.567281
0.567281
0.567282
0.567284
0.567286
0.567288
0.567288
0.567289
0.567291
0.567293
0.567295
0.567295
0.567296
0.567298
0.5673
0.567302
0.567302
0.567303
0.567305
0.567307
0.567309
0.567309
0.56731
0.567312
0.567314
0.567316
0.567316
0.567318
0.567319
0.567321
0.567323
0.567323
0.567325
0.567326
0.567328
0.56733
0.56733
0.567332
0.567333
0.567335
0.567337
0.567337
0.567339
0.567341
0.567342
0.567344
0.567344
0.567346
0.567348
0.56735
0.567351
0.567351
0.567353
0.567355
0.567357
0.567359
0.567359
0.56736
0.567362
0.567364
0.567366
0.567366
0.567368
0.56737
0.567371
0.567373
0.567373
0.567375
0.567377
0.567379
0.56738
0.56738
0.567382
0.567384
0.567386
0.567388
0.567388
0.56739
0.567391
0.567393
0.567395
0.567395
0.567397
0.567399
0.567401
0.567403
0.567403
0.567404
0.567406
0.567408
0.56741
0.56741
0.567412
0.567414
0.567416
0.567418
0.567418
0.567419
0.567421
0.567423
0.567425
0.567425
0.567427
0.567429
0.567431
0.567433
0.567433
0.567434
0.567436
0.567438
0.56744
0.56744
0.567442
0.567444
0.567446
0.567448
0.567448
0.56745
0.567452
0.567453
0.567455
0.567455
0.567457
0.567459
0.567461
0.567463
0.567463
0.567465
0.567467
0.567469
0.567471
0.567471
0.567473
0.567474
0.567476
0.567478
0.567478
0.56748
0.567482
0.567484
0.567486
0.567486
0.567488
0.56749
0.567492
0.567494
0.567494
0.567496
0.567498
0.5675
0.567502
0.567502
0.567504
0.567506
0.567508
0.56751
0.56751
0.567512
0.567514
0.567516
0.567518
0.567518
0.56752
0.567522
0.567524
0.567526
0.567526
0.567528
0.56753
0.567532
0.567534
0.567534
0.567536
0.567538
0.56754
0.567542
0.567542
0.567544
0.567546
0.567548
0.56755
0.56755
0.567552
0.567554
0.567556
0.567558
0.567558
0.56756
0.567562
0.567564
0.567566
0.567566
0.567568
0.56757
0.567572
0.567574
0.567574
0.567576
0.567578
0.56758
0.567582
0.567582
0.567584
0.567586
0.567588
0.56759
0.56759
0.567592
0.567594
0.567597
0.567599
0.567599
0.567601
0.567603
0.567605
0.567607
0.567607
0.567609
0.567611
0.567613
0.567615
0.567615
0.567617
0.567619
0.567621
0.567624
0.567624
0.567626
0.567628
0.56763
0.567632
0.567632
0.567634
0.567636
0.567638
0.56764
0.56764
0.567643
0.567645
0.567647
0.567649
0.567649
0.567651
0.567653
0.567655
0.567657
0.567657
0.567659
0.567662
0.567664
0.567666
0.567666
0.567668
0.56767
0.567672
0.567674
0.567674
0.567677
0.567679
0.567681
0.567683
0.567683
0.567685
0.567687
0.567689
0.567692
0.567692
0.567694
0.567696
0.567698
0.5677
0.5677
0.567702
0.567705
0.567707
0.567709
0.567709
0.567711
0.567713
0.567716
0.567718
0.567718
0.56772
0.567722
0.567724
0.567727
0.567727
0.567729
0.567731
0.567733
0.567736
0.567736
0.567738
0.56774
0.567742
0.567744
0.567744
0.567747
0.567749
0.567751
0.567753
0.567753
0.567756
0.567758
0.56776
0.567762
0.567762
0.567764
0.567767
0.567769
0.567771
0.567771
0.567773
0.567776
0.567778
0.56778
0.56778
0.567783
0.567785
0.567787
0.567789
0.567789
0.567792
0.567794
0.567796
0.567798
0.567798
0.567801
0.567803
0.567805
0.567808
0.567808
0.56781
0.567812
0.567814
0.567817
0.567817
0.567819
0.567821
0.567824
0.567826
0.567826
0.567828
0.567831
0.567833
0.567835
0.567835
0.567838
0.56784
0.567842
0.567844
0.567844
0.567847
0.567849
0.567851
0.567854
0.567854
0.567856
0.567859
0.567861
0.567863
0.567863
0.567866
0.567868
0.56787
0.567873
0.567873
0.567875
0.567877
0.56788
0.567882
0.567882
0.567884
0.567887
0.567889
0.567892
0.567892
0.567894
0.567896
0.567899
0.567901
0.567901
0.567903
0.567906
0.567908
0.567911
0.567911
0.567913
0.567915
0.567918
0.56792
0.56792
0.567922
0.567925
0.567927
0.56793
0.56793
0.567932
0.567935
0.567937
0.56794
0.56794
0.567942
0.567944
0.567947
0.567949
0.567949
0.567952
0.567954
0.567957
0.567959
0.567959
0.567962
0.567964
0.567967
0.567969
0.567969
0.567971
0.567974
0.567976
0.567979
0.567979
0.567981
0.567984
0.567986
0.567989
0.567989
0.567991
0.567994
0.567996
0.567999
0.567999
0.568001
0.568004
0.568006
0.568009
0.568009
0.568011
0.568014
0.568016
0.568019
0.568019
0.568021
0.568024
0.568026
0.568029
0.568029
0.568031
0.568034
0.568036
0.568039
0.568039
0.568041
0.568044
0.568047
0.568049
0.568049
0.568052
0.568054
0.568057
0.568059
0.568059
0.568062
0.568064
0.568067
0.56807
0.56807
0.568072
0.568075
0.568077
0.56808
0.56808
0.568082
0.568085
0.568088
0.56809
0.56809
0.568093
0.568095
0.568098
0.568101
0.568101
0.568103
0.568106
0.568108
0.568111
0.568111
0.568114
0.568116
0.568119
0.568121
0.568121
0.568124
0.568127
0.568129
0.568132
0.568132
0.568135
0.568137
0.56814
0.568142
0.568142
0.568145
0.568148
0.56815
0.568153
0.568153
0.568156
0.568158
0.568161
0.568164
0.568164
0.568166
0.568169
0.568172
0.568174
0.568174
0.568177
0.56818
0.568182
0.568185
0.568185
0.568188
0.568191
0.568193
0.568196
0.568196
0.568199
0.568201
0.568204
0.568207
0.568207
0.56821
0.568212
0.568215
0.568218
0.568218
0.56822
0.568223
0.568226
0.568229
0.568229
0.568231
0.568234
0.568237
0.56824
0.56824
0.568242
0.568245
0.568248
0.568251
0.568251
0.568253
0.568256
0.568259
0.568262
0.568262
0.568265
0.568267
0.56827
0.568273
0.568273
0.568276
0.568278
0.568281
0.568284
0.568284
0.568287
0.56829
0.568292
0.568295
0.568295
0.568298
0.568301
0.568304
0.568307
0.568307
0.568309
0.568312
0.568315
0.568318
0.568318
0.568321
0.568324
0.568326
0.568329
0.568329
0.568332
0.568335
0.568338
0.568341
0.568341
0.568343
0.568346
0.568349
0.568352
0.568352
0.568355
0.568358
0.568361
0.568364
0.568364
0.568366
0.568369
0.568372
0.568375
0.568375
0.568378
0.568381
0.568384
0.568387
0.568387
0.56839
0.568392
0.568395
0.568398
0.568398
0.568401
0.568404
0.568407
0.56841
0.56841
0.568413
0.568416
0.568419
0.568422
0.568422
0.568425
0.568428
0.568431
0.568434
0.568434
0.568437
0.56844
0.568442
0.568445
0.568445
0.568448
0.568451
0.568454
0.568457
0.568457
0.56846
0.568463
0.568466
0.568469
0.568469
0.568472
0.568475
0.568478
0.568481
0.568481
0.568484
0.568487
0.56849
0.568493
0.568493
0.568496
0.5685
0.568503
0.568506
0.568506
0.568509
0.568512
0.568515
0.568518
0.568518
0.568521
0.568524
0.568527
0.56853
0.56853
0.568533
0.568536
0.568539
0.568542
0.568542
0.568545
0.568548
0.568551
0.568555
0.568555
0.568558
0.568561
0.568564
0.568567
0.568567
0.56857
0.568573
0.568576
0.568579
0.568579
0.568583
0.568586
0.568589
0.568592
0.568592
0.568595
0.568598
0.568601
0.568604
0.568604
0.568608
0.568611
0.568614
0.568617
0.568617
0.56862
0.568623
0.568626
0.56863
0.56863
0.568633
0.568636
0.568639
0.568642
0.568642
0.568645
0.568649
0.568652
0.568655
0.568655
0.568658
0.568661
0.568665
0.568668
0.568668
0.568671
0.568674
0.568677
0.56868
0.56868
0.568684
0.568687
0.56869
0.568694
0.568694
0.568697
0.5687
0.568703
0.568707
0.568707
0.56871
0.568713
0.568716
0.56872
0.56872
0.568723
0.568726
0.56873
0.568733
0.568733
0.568736
0.568739
0.568743
0.568746
0.568746
0.568749
0.568753
0.568756
0.568759
0.568759
0.568763
0.568766
0.568769
0.568773
0.568773
0.568776
0.568779
0.568783
0.568786
0.568786
0.568789
0.568793
0.568796
0.568799
0.568799
0.568803
0.568806
0.568809
0.568813
0.568813
0.568816
0.568819
0.568823
0.568826
0.568826
0.56883
0.568833
0.568836
0.56884
0.56884
0.568843
0.568847
0.56885
0.568853
0.568853
0.568857
0.56886
0.568864
0.568867
0.568867
0.56887
0.568874
0.568877
0.568881
0.568881
0.568884
0.568888
0.568891
0.568895
0.568895
0.568898
0.568901
0.568905
0.568908
0.568908
0.568912
0.568915
0.568919
0.568922
0.568922
0.568926
0.568929
0.568933
0.568936
0.568936
0.56894
0.568943
0.568947
0.56895
0.56895
0.568954
0.568957
0.568961
0.568964
0.568964
0.568968
0.568971
0.568975
0.568979
0.568979
0.568982
0.568986
0.568989
0.568993
0.568993
0.568996
0.569
0.569004
0.569007
0.569007
0.569011
0.569014
0.569018
0.569022
0.569022
0.569025
0.569029
0.569032
0.569036
0.569036
0.56904
0.569043
0.569047
0.56905
0.56905
0.569054
0.569058
0.569061
0.569065
0.569065
0.569069
0.569072
0.569076
0.56908
0.56908
0.569083
0.569087
0.569091
0.569094
0.569094
0.569098
0.569102
0.569105
0.569109
0.569109
0.569113
0.569116
0.56912
0.569124
0.569124
0.569128
0.569131
0.569135
0.569139
0.569139
0.569142
0.569146
0.56915
0.569154
0.569154
0.569157
0.569161
0.569165
0.569169
0.569169
0.569172
0.569176
0.56918
0.569184
0.569184
0.569188
0.569191
0.569195
0.569199
0.569199
0.569203
0.569206
0.56921
0.569214
0.569214
0.569218
0.569222
0.569225
0.569229
0.569229
0.569233
0.569237
0.569241
0.569244
0.569244
0.569248
0.569252
0.569256
0.56926
0.56926
0.569264
0.569268
0.569272
0.569275
0.569275
0.569279
0.569283
0.569287
0.569291
0.569291
0.569295
0.569299
0.569303
0.569307
0.569307
0.569311
0.569315
0.569319
0.569322
0.569322
0.569326
0.56933
0.569334
0.569338
0.569338
0.569342
0.569346
0.56935
0.569354
0.569354
0.569358
0.569362
0.569366
0.56937
0.56937
0.569374
0.569378
0.569382
0.569386
0.569386
0.56939
0.569394
0.569398
0.569402
0.569402
0.569406
0.56941
0.569414
0.569418
0.569418
0.569422
0.569426
0.56943
0.569434
0.569434
0.569438
0.569442
0.569446
0.569451
0.569451
0.569455
0.569459
0.569463
0.569467
0.569467
0.569471
0.569475
0.569479
0.569483
0.569483
0.569487
0.569491
0.569496
0.5695
0.5695
0.569504
0.569508
0.569512
0.569516
0.569516
0.56952
0.569524
0.569529
0.569533
0.569533
0.569537
0.569541
0.569545
0.569549
0.569549
0.569553
0.569558
0.569562
0.569566
0.569566
0.56957
0.569575
0.569579
0.569583
0.569583
0.569587
0.569592
0.569596
0.5696
0.5696
0.569604
0.569609
0.569613
0.569617
0.569617
0.569621
0.569626
0.56963
0.569634
0.569634
0.569639
0.569643
0.569647
0.569651
0.569651
0.569656
0.56966
0.569664
0.569669
0.569669
0.569673
0.569677
0.569682
0.569686
0.569686
0.56969
0.569695
0.569699
0.569703
0.569703
0.569708
0.569712
0.569717
0.569721
0.569721
0.569725
0.56973
0.569734
0.569738
0.569738
0.569743
0.569747
0.569752
0.569756
0.569756
0.569761
0.569765
0.569769
0.569774
0.569774
0.569778
0.569783
0.569787
0.569792
0.569792
0.569796
0.569801
0.569805
0.569809
0.569809
0.569814
0.569818
0.569823
0.569827
0.569827
0.569832
0.569836
0.569841
0.569845
0.569845
0.56985
0.569854
0.569859
0.569863
0.569863
0.569868
0.569872
0.569877
0.569881
0.569881
0.569886
0.569891
0.569895
0.5699
0.5699
0.569905
0.569909
0.569914
0.569918
0.569918
0.569923
0.569928
0.569932
0.569937
0.569937
0.569942
0.569946
0.569951
0.569956
0.569956
0.56996
0.569965
0.569969
0.569974
0.569974
0.569979
0.569984
0.569988
0.569993
0.569993
0.569998
0.570002
0.570007
0.570012
0.570012
0.570016
0.570021
0.570026
0.570031
0.570031
0.570035
0.57004
0.570045
0.57005
0.57005
0.570054
0.570059
0.570064
0.570069
0.570069
0.570073
0.570078
0.570083
0.570088
0.570088
0.570093
0.570097
0.570102
0.570107
0.570107
0.570112
0.570117
0.570122
0.570126
0.570126
0.570131
0.570136
0.570141
0.570146
0.570146
0.570151
0.570155
0.57016
0.570165
0.570165
0.57017
0.570175
0.57018
0.570185
0.570185
0.57019
0.570195
0.570199
0.570204
0.570204
0.570209
0.570214
0.570219
0.570224
0.570224
0.570229
0.570234
0.570239
0.570244
0.570244
0.570249
0.570254
0.570259
0.570264
0.570264
0.570269
0.570274
0.570279
0.570284
0.570284
0.570289
0.570294
0.570299
0.570304
0.570304
0.570309
0.570315
0.57032
0.570325
0.570325
0.57033
0.570335
0.57034
0.570345
0.570345
0.57035
0.570355
0.57036
0.570365
0.570365
0.570371
0.570376
0.570381
0.570386
0.570386
0.570391
0.570396
0.570401
0.570407
0.570407
0.570412
0.570417
0.570422
0.570427
0.570427
0.570433
0.570438
0.570443
0.570448
0.570448
0.570453
0.570459
0.570464
0.570469
0.570469
0.570474
0.57048
0.570485
0.57049
0.57049
0.570495
0.570501
0.570506
0.570511
0.570511
0.570517
0.570522
0.570527
0.570532
0.570532
0.570538
0.570543
0.570548
0.570554
0.570554
0.570559
0.570564
0.57057
0.570575
0.570575
0.57058
0.570586
0.570591
0.570596
0.570596
0.570602
0.570607
0.570613
0.570618
0.570618
0.570624
0.570629
0.570635
0.57064
0.57064
0.570646
0.570651
0.570656
0.570662
0.570662
0.570667
0.570673
0.570678
0.570684
0.570684
0.570689
0.570695
0.5707
0.570706
0.570706
0.570712
0.570717
0.570723
0.570728
0.570728
0.570734
0.570739
0.570745
0.57075
0.57075
0.570756
0.570762
0.570767
0.570773
0.570773
0.570778
0.570784
0.57079
0.570795
0.570795
0.570801
0.570806
0.570812
0.570818
0.570818
0.570823
0.570829
0.570835
0.57084
0.57084
0.570846
0.570852
0.570858
0.570863
0.570863
0.570869
0.570875
0.57088
0.570886
0.570886
0.570892
0.570898
0.570903
0.570909
0.570909
0.570915
0.570921
0.570926
0.570932
0.570932
0.570938
0.570944
0.570949
0.570955
0.570955
0.570961
0.570967
0.570973
0.570978
0.570978
0.570984
0.57099
0.570996
0.571002
0.571002
0.571008
0.571014
0.57102
0.571026
0.571026
0.571032
0.571038
0.571044
0.57105
0.57105
0.571055
0.571061
0.571067
0.571073
0.571073
0.571079
0.571085
0.571091
0.571097
0.571097
0.571103
0.571109
0.571115
0.571121
0.571121
0.571127
0.571133
0.571139
0.571145
0.571145
0.571152
0.571158
0.571164
0.57117
0.57117
0.571176
0.571182
0.571188
0.571194
0.571194
0.5712
0.571206
0.571212
0.571219
0.571219
0.571225
0.571231
0.571237
0.571243
0.571243
0.571249
0.571256
0.571262
0.571268
0.571268
0.571274
0.57128
0.571286
0.571293
0.571293
0.571299
0.571305
0.571311
0.571318
0.571318
0.571324
0.57133
0.571336
0.571342
0.571342
0.571349
0.571355
0.571361
0.571368
0.571368
0.571374
0.57138
0.571387
0.571393
0.571393
0.5714
0.571406
0.571412
0.571419
0.571419
0.571425
0.571432
0.571438
0.571444
0.571444
0.571451
0.571457
0.571464
0.57147
0.57147
0.571477
0.571483
0.57149
0.571496
0.571496
0.571503
0.571509
0.571516
0.571522
0.571522
0.571529
0.571535
0.571542
0.571548
0.571548
0.571555
0.571561
0.571568
0.571574
0.571574
0.571581
0.571588
0.571594
0.571601
0.571601
0.571607
0.571614
0.571621
0.571627
0.571627
0.571634
0.571641
0.571647
0.571654
0.571654
0.571661
0.571667
0.571674
0.571681
0.571681
0.571687
0.571694
0.571701
0.571707
0.571707
0.571714
0.571721
0.571728
0.571734
0.571734
0.571741
0.571748
0.571755
0.571761
0.571761
0.571768
0.571775
0.571782
0.571789
0.571789
0.571795
0.571802
0.571809
0.571816
0.571816
0.571823
0.57183
0.571837
0.571844
0.571844
0.571851
0.571858
0.571865
0.571872
0.571872