<?xml version="1.0"?>
<VTKFile type="UnstructuredGrid" version="0.1" byte_order="LittleEndian">
<UnstructuredGrid>
<Piece NumberOfPoints="5000" NumberOfCells="4000">
<PointData Scalars="Reaction 0">
<DataArray type="Float32" Name="Reaction 0" format="ascii">
0.344653
0.344653
0.344653
0.344653
0.344653
0.344653
0.344653
0.344653
0.344654
0.344654
0.344654
0.344654
0.344654
0.344655
0.344655
0.344655
0.344655
0.344656
0.344656
0.344657
0.344657
0.344657
0.344658
0.344658
0.344659
0.344659
0.34466
0.34466
0.344661
0.344662
0.344662
0.344662
0.344663
0.344664
0.344665
0.344665
0.344666
0.344666
0.344667
0.344668
0.344668
0.344669
0.34467
0.344671
0.344672
0.344672
0.344674
0.344675
0.344676
0.344677
0.344677
0.344678
0.34468
0.344681
0.344682
0.344682
0.344683
0.344685
0.344686
0.344688
0.344688
0.344689
0.344691
0.344692
0.344694
0.344694
0.344695
0.344697
0.344699
0.3447
0.3447
0.344702
0.344704
0.344705
0.344707
0.344707
0.344709
0.344711
0.344713
0.344715
0.344715
0.344717
0.344719
0.344721
0.344723
0.344723
0.344725
0.344727
0.344729
0.344731
0.344731
0.344733
0.344736
0.344738
0.34474
0.34474
0.344742
0.344745
0.344747
0.34475
0.34475
0.344752
0.344754
0.344757
0.344759
0.344759
0.344762
0.344765
0.344767
0.34477
0.34477
0.344773
0.344775
0.344778
0.344781
0.344781
0.344784
0.344786
0.344789
0.344792
0.344792
0.344795
0.344798
0.344801
0.344804
0.344804
0.344807
0.34481
0.344813
0.344816
0.344816
0.344819
0.344823
0.344826
0.344829
0.344829
0.344832
0.344836
0.344839
0.344842
0.344842
0.344846
0.344849
0.344853
0.344856
0.344856
0.34486
0.344863
0.344867
0.34487
0.34487
0.344874
0.344878
0.344881
0.344885
0.344885
0.344889
0.344893
0.344897
0.3449
0.3449
0.344904
0.344908
0.344912
0.344916
0.344916
0.34492
0.344924
0.344928
0.344932
0.344932
0.344936
0.344941
0.344945
0.344949
0.344949
0.344953
0.344958
0.344962
0.344966
0.344966
0.344971
0.344975
0.344979
0.344984
0.344984
0.344988
0.344993
0.344997
0.345002
0.345002
0.345007
0.345011
0.345016
0.345021
0.345021
0.345025
0.34503
0.345035
0.34504
0.34504
0.345044
0.345049
0.345054
0.345059
0.345059
0.345064
0.345069
0.345074
0.345079
0.345079
0.345084
0.345089
0.345095
0.3451
0.3451
0.345105
0.34511
0.345116
0.345121
0.345121
0.345126
0.345132
0.345137
0.345142
0.345142
0.345148
0.345153
0.345159
0.345164
0.345164
0.34517
0.345176
0.345181
0.345187
0.345187
0.345193
0.345198
0.345204
0.34521
0.34521
0.345216
0.345221
0.345227
0.345233
0.345233
0.345239
0.345245
0.345251
0.345257
0.345257
0.345263
0.345269
0.345275
0.345282
0.345282
0.345288
0.345294
0.3453
0.345306
0.345306
0.345313
0.345319
0.345325
0.345332
0.345332
0.345338
0.345345
0.345351
0.345358
0.345358
0.345364
0.345371
0.345377
0.345384
0.345384
0.345391
0.345397
0.345404
0.345411
0.345411
0.345418
0.345424
0.345431
0.345438
0.345438
0.345445
0.345452
0.345459
0.345466
0.345466
0.345473
0.34548
0.345487
0.345494
0.345494
0.345501
0.345509
0.345516
0.345523
0.345523
0.34553
0.345538
0.345545
0.345552
0.345552
0.34556
0.345567
0.345574
0.345582
0.345582
0.345589
0.345597
0.345605
0.345612
0.345612
0.34562
0.345627
0.345635
0.345643
0.345643
0.345651
0.345658
0.345666
0.345674
0.345674
0.345682
0.34569
0.345698
0.345706
0.345706
0.345714
0.345722
0.34573
0.345738
0.345738
0.345746
0.345754
0.345762
0.34577
0.34577
0.345779
0.345787
0.345795
0.345804
0.345804
0.345812
0.34582
0.345829
0.345837
0.345837
0.345846
0.345854
0.345863
0.345871
0.345871
0.34588
0.345888
0.345897
0.345906
0.345906
0.345914
0.345923
0.345932
0.345941
0.345941
0.34595
0.345958
0.345967
0.345976
0.345976
0.345985
0.345994
0.346003
0.346012
0.346012
0.346021
0.34603
0.34604
0.346049
0.346049
0.346058
0.346067
0.346076
0.346086
0.346086
0.346095
0.346104
0.346114
0.346123
0.346123
0.346133
0.346142
0.346152
0.346161
0.346161
0.346171
0.34618
0.34619
0.346199
0.346199
0.346209
0.346219
0.346229
0.346238
0.346238
0.346248
0.346258
0.346268
0.346278
0.346278
0.346288
0.346298
0.346308
0.346318
0.346318
0.346328
0.346338
0.346348
0.346358
0.346358
0.346368
0.346378
0.346389
0.346399
0.346399
0.346409
0.346419
0.34643
0.34644
0.34644
0.34645
0.346461
0.346471
0.346482
0.346482
0.346492
0.346503
0.346514
0.346524
0.346524
0.346535
0.346545
0.346556
0.346567
0.346567
0.346578
0.346588
0.346599
0.34661
0.34661
0.346621
0.346632
0.346643
0.346654
0.346654
0.346665
0.346676
0.346687
0.346698
0.346698
0.346709
0.34672
0.346732
0.346743
0.346743
0.346754
0.346765
0.346777
0.346788
0.346788
0.346799
0.346811
0.346822
0.346834
0.346834
0.346845
0.346857
0.346868
0.34688
0.34688
0.346891
0.346903
0.346915
0.346926
0.346926
0.346938
0.34695
0.346962
0.346973
0.346973
0.346985
0.346997
0.347009
0.347021
0.347021
0.347033
0.347045
0.347057
0.347069
0.347069
0.347081
0.347093
0.347105
0.347118
0.347118
0.34713
0.347142
0.347154
0.347167
0.347167
0.347179
0.347191
0.347204
0.347216
0.347216
0.347228
0.347241
0.347253
0.347266
0.347266
0.347279
0.347291
0.347304
0.347316
0.347316
0.347329
0.347342
0.347355
0.347367
0.347367
0.34738
0.347393
0.347406
0.347419
0.347419
0.347432
0.347445
0.347458
0.347471
0.347471
0.347484
0.347497
0.34751
0.347523
0.347523
0.347536
0.34755
0.347563
0.347576
0.347576
0.347589
0.347603
0.347616
0.347629
0.347629
0.347643
0.347656
0.34767
0.347683
0.347683
0.347697
0.34771
0.347724
0.347738
0.347738
0.347751
0.347765
0.347779
0.347792
0.347792
0.347806
0.34782
0.347834
0.347848
0.347848
0.347861
0.347875
0.347889
0.347903
0.347903
0.347917
0.347931
0.347945
0.34796
0.34796
0.347974
0.347988
0.348002
0.348016
0.348016
0.348031
0.348045
0.348059
0.348074
0.348074
0.348088
0.348102
0.348117
0.348131
0.348131
0.348146
0.34816
0.348175
0.348189
0.348189
0.348204
0.348219
0.348233
0.348248
0.348248
0.348263
0.348278
0.348292
0.348307
0.348307
0.348322
0.348337
0.348352
0.348367
0.348367
0.348382
0.348397
0.348412
0.348427
0.348427
0.348442
0.348457
0.348472
0.348487
0.348487
0.348503
0.348518
0.348533
0.348548
0.348548
0.348564
0.348579
0.348595
0.34861
0.34861
0.348625
0.348641
0.348656
0.348672
0.348672
0.348688
0.348703
0.348719
0.348734
0.348734
0.34875
0.348766
0.348782
0.348797
0.348797
0.348813
0.348829
0.348845
0.348861
0.348861
0.348877
0.348893
0.348909
0.348925
0.348925
0.348941
0.348957
0.348973
0.348989
0.348989
0.349005
0.349022
0.349038
0.349054
0.349054
0.34907
0.349087
0.349103
0.34912
0.34912
0.349136
0.349152
0.349169
0.349185
0.349185
0.349202
0.349219
0.349235
0.349252
0.349252
0.349268
0.349285
0.349302
0.349319
0.349319
0.349335
0.349352
0.349369
0.349386
0.349386
0.349403
0.34942
0.349437
0.349454
0.349454
0.349471
0.349488
0.349505
0.349522
0.349522
0.349539
0.349556
0.349573
0.349591
0.349591
0.349608
0.349625
0.349642
0.34966
0.34966
0.349677
0.349695
0.349712
0.34973
0.34973
0.349747
0.349765
0.349782
0.3498
0.3498
0.349817
0.349835
0.349853
0.34987
0.34987
0.349888
0.349906
0.349924
0.349942
0.349942
0.349959
0.349977
0.349995
0.350013
0.350013
0.350031
0.350049
0.350067
0.350085
0.350085
0.350103
0.350121
0.35014
0.350158
0.350158
0.350176
0.350194
0.350213
0.350231
0.350231
0.350249
0.350268
0.350286
0.350304
0.350304
0.350323
0.350341
0.35036
0.350378
0.350378
0.350397
0.350416
0.350434
0.350453
0.350453
0.350472
0.35049
0.350509
0.350528
0.350528
0.350547
0.350566
0.350584
0.350603
0.350603
0.350622
0.350641
0.35066
0.350679
0.350679
0.350698
0.350717
0.350737
0.350756
0.350756
0.350775
0.350794
0.350813
0.350833
0.350833
0.350852
0.350871
0.350891
0.35091
0.35091
0.350929
0.350949
0.350968
0.350988
0.350988
0.351007
0.351027
0.351047
0.351066
0.351066
0.351086
0.351106
0.351125
0.351145
0.351145
0.351165
0.351185
0.351204
0.351224
0.351224
0.351244
0.351264
0.351284
0.351304
0.351304
0.351324
0.351344
0.351364
0.351384
0.351384
0.351404
0.351425
0.351445
0.351465
0.351465
0.351485
0.351506
0.351526
0.351546
0.351546
0.351567
0.351587
0.351607
0.351628
0.351628
0.351648
0.351669
0.351689
0.35171
0.35171
0.351731
0.351751
0.351772
0.351793
0.351793
0.351813
0.351834
0.351855
0.351876
0.351876
0.351897
0.351918
0.351938
0.351959
0.351959
0.35198
0.352001
0.352022
0.352044
0.352044
0.352065
0.352086
0.352107
0.352128
0.352128
0.352149
0.352171
0.352192
0.352213
0.352213
0.352234
0.352256
0.352277
0.352299
0.352299
0.35232
0.352342
0.352363
0.352385
0.352385
0.352406
0.352428
0.352449
0.352471
0.352471
0.352493
0.352514
0.352536
0.352558
0.352558
0.35258
0.352602
0.352624
0.352645
0.352645
0.352667
0.352689
0.352711
0.352733
0.352733
0.352755
0.352777
0.3528
0.352822
0.352822
0.352844
0.352866
0.352888
0.352911
0.352911
0.352933
0.352955
0.352978
0.353
0.353
0.353022
0.353045
0.353067
0.35309
0.35309
0.353112
0.353135
0.353157
0.35318
0.35318
0.353203
0.353225
0.353248
0.353271
0.353271
0.353294
0.353316
0.353339
0.353362
0.353362
0.353385
0.353408
0.353431
0.353454
0.353454
0.353477
0.3535
0.353523
0.353546
0.353546
0.353569
0.353592
0.353615
0.353639
0.353639
0.353662
0.353685
0.353708
0.353732
0.353732
0.353755
0.353779
0.353802
0.353825
0.353825
0.353849
0.353872
0.353896
0.35392
0.35392
0.353943
0.353967
0.35399
0.354014
0.354014
0.354038
0.354062
0.354085
0.354109
0.354109
0.354133
0.354157
0.354181
0.354205
0.354205
0.354229
0.354253
0.354277
0.354301
0.354301
0.354325
0.354349
0.354373
0.354397
0.354397
0.354421
0.354446
0.35447
0.354494
0.354494
0.354519
0.354543
0.354567
0.354592
0.354592
0.354616
0.354641
0.354665
0.35469
0.35469
0.354714
0.354739
0.354763
0.354788
0.354788
0.354813
0.354837
0.354862
0.354887
0.354887
0.354912
0.354937
0.354961
0.354986
0.354986
0.355011
0.355036
0.355061
0.355086
0.355086
0.355111
0.355136
0.355161
0.355186
0.355186
0.355212
0.355237
0.355262
0.355287
0.355287
0.355312
0.355338
0.355363
0.355388
0.355388
0.355414
0.355439
0.355465
0.35549
0.35549
0.355516
0.355541
0.355567
0.355592
0.355592
0.355618
0.355644
0.355669
0.355695
0.355695
0.355721
0.355747
0.355772
0.355798
0.355798
0.355824
0.35585
0.355876
0.355902
0.355902
0.355928
0.355954
0.35598
0.356006
0.356006
0.356032
0.356058
0.356084
0.356111
0.356111
0.356137
0.356163
0.356189
0.356216
0.356216
0.356242
0.356268
0.356295
0.356321
0.356321
0.356348
0.356374
0.356401
0.356427
0.356427
0.356454
0.35648
0.356507
0.356534
0.356534
0.35656
0.356587
0.356614
0.356641
0.356641
0.356668
0.356694
0.356721
0.356748
0.356748
0.356775
0.356802
0.356829
0.356856
0.356856
0.356883
0.35691
0.356937
0.356965
0.356965
0.356992
0.357019
0.357046
0.357073
0.357073
0.357101
0.357128
0.357155
0.357183
0.357183
0.35721
0.357238
0.357265
0.357293
0.357293
0.35732
0.357348
0.357375
0.357403
0.357403
0.357431
0.357458
0.357486
0.357514
0.357514
0.357541
0.357569
0.357597
0.357625
0.357625
0.357653
0.357681
0.357709
0.357737
0.357737
0.357765
0.357793
0.357821
0.357849
0.357849
0.357877
0.357905
0.357933
0.357961
0.357961
0.35799
0.358018
0.358046
0.358075
0.358075
0.358103
0.358131
0.35816
0.358188
0.358188
0.358217
0.358245
0.358274
0.358302
0.358302
0.358331
0.35836
0.358388
0.358417
0.358417
0.358446
0.358474
0.358503
0.358532
0.358532
0.358561
0.35859
0.358619
0.358647
0.358647
0.358676
0.358705
0.358734
0.358763
0.358763
0.358793
0.358822
0.358851
0.35888
0.35888
0.358909
0.358938
0.358968
0.358997
0.358997
0.359026
0.359056
0.359085
0.359114
0.359114
0.359144
0.359173
0.359203
0.359232
0.359232
0.359262
0.359291
0.359321
0.359351
0.359351
0.35938
0.35941
0.35944
0.359469
0.359469
0.359499
0.359529
0.359559
0.359589
0.359589
0.359619
0.359648
0.359678
0.359708
0.359708
0.359738
0.359768
0.359799
0.359829
0.359829
0.359859
0.359889
0.359919
0.359949
0.359949
0.35998
0.36001
0.36004
0.360071
0.360071
0.360101
0.360131
0.360162
0.360192
0.360192
0.360223
0.360253
0.360284
0.360314
0.360314
0.360345
0.360376
0.360406
0.360437
0.360437
0.360468
0.360499
0.360529
0.36056
0.36056
0.360591
0.360622
0.360653
0.360684
0.360684
0.360715
0.360746
0.360777
0.360808
0.360808
0.360839
0.36087
0.360901
0.360932
0.360932
0.360963
0.360995
0.361026
0.361057
0.361057
0.361089
0.36112
0.361151
0.361183
0.361183
0.361214
0.361246
0.361277
0.361309
0.361309
0.36134
0.361372
0.361403
0.361435
0.361435
0.361467
0.361498
0.36153
0.361562
0.361562
0.361594
0.361625
0.361657
0.361689
0.361689
0.361721
0.361753
0.361785
0.361817
0.361817
0.361849
0.361881
0.361913
0.361945
0.361945
0.361977
0.36201
0.362042
0.362074
0.362074
0.362106
0.362139
0.362171
0.362203
0.362203
0.362236
0.362268
0.362301
0.362333
0.362333
0.362365
0.362398
0.362431
0.362463
0.362463
0.362496
0.362528
0.362561
0.362594
0.362594
0.362627
0.362659
0.362692
0.362725
0.362725
0.362758
0.362791
0.362824
0.362857
0.362857
0.362889
0.362922
0.362956
0.362989
0.362989
0.363022
0.363055
0.363088
0.363121
0.363121
0.363154
0.363188
0.363221
0.363254
0.363254
0.363287
0.363321
0.363354
0.363388
0.363388
0.363421
0.363454
0.363488
0.363522
0.363522
0.363555
0.363589
0.363622
0.363656
0.363656
0.36369
0.363723
0.363757
0.363791
0.363791
0.363825
0.363858
0.363892
0.363926
0.363926
0.36396
0.363994
0.364028
0.364062
0.364062
0.364096
0.36413
0.364164
0.364198
0.364198
0.364232
0.364267
0.364301
0.364335
0.364335
0.364369
0.364404
0.364438
0.364472
0.364472
0.364507
0.364541
0.364576
0.36461
0.36461
0.364644
0.364679
0.364714
0.364748
0.364748
0.364783
0.364817
0.364852
0.364887
0.364887
0.364922
0.364956
0.364991
0.365026
0.365026
0.365061
0.365096
0.365131
0.365165
0.365165
0.3652
0.365235
0.36527
0.365306
0.365306
0.365341
0.365376
0.365411
0.365446
0.365446
0.365481
0.365517
0.365552
0.365587
0.365587
0.365622
0.365658
0.365693
0.365729
0.365729
0.365764
0.365799
0.365835
0.36587
0.36587
0.365906
0.365942
0.365977
0.366013
0.366013
0.366049
0.366084
0.36612
0.366156
0.366156
0.366192
0.366227
0.366263
0.366299
0.366299
0.366335
0.366371
0.366407
0.366443
0.366443
0.366479
0.366515
0.366551
0.366587
0.366587
0.366623
0.366659
0.366696
0.366732
0.366732
0.366768
0.366804
0.366841
0.366877
0.366877
0.366913
0.36695
0.366986
0.367023
0.367023
0.367059
0.367096
0.367132
0.367169
0.367169
0.367206
0.367242
0.367279
0.367316
0.367316
0.367352
0.367389
0.367426
0.367463
0.367463
0.367499
0.367536
0.367573
0.36761
0.36761
0.367647
0.367684
0.367721
0.367758
0.367758
0.367795
0.367832
0.36787
0.367907
0.367907
0.367944
0.367981
0.368018
0.368056
0.368056
0.368093
0.36813
0.368168
0.368205
0.368205
0.368243
0.36828
0.368317
0.368355
0.368355
0.368393
0.36843
0.368468
0.368505
0.368505
0.368543
0.368581
0.368618
0.368656
0.368656
0.368694
0.368732
0.36877
0.368807
0.368807
0.368845
0.368883
0.368921
0.368959
0.368959
0.368997
0.369035
0.369073
0.369111
0.369111
0.36915
0.369188
0.369226
0.369264
0.369264
0.369302
0.369341
0.369379
0.369417
0.369417
0.369456
0.369494
0.369532
0.369571
0.369571
0.369609
0.369648
0.369686
0.369725
0.369725
0.369764
0.369802
0.369841
0.36988
0.36988
0.369918
0.369957
0.369996
0.370035
0.370035
0.370073
0.370112
0.370151
0.37019
0.37019
0.370229
0.370268
0.370307
0.370346
0.370346
0.370385
0.370424
0.370463
0.370503
0.370503
0.370542
0.370581
0.37062
0.370659
0.370659
0.370699
0.370738
0.370777
0.370817
0.370817
0.370856
0.370896
0.370935
0.370975
0.370975
0.371014
0.371054
0.371093
0.371133
0.371133
0.371173
0.371212
0.371252
0.371292
0.371292
0.371331
0.371371
0.371411
0.371451
0.371451
0.371491
0.371531
0.371571
0.371611
0.371611
0.371651
0.371691
0.371731
0.371771
0.371771
0.371811
0.371851
0.371891
0.371931
0.371931
0.371972
0.372012
0.372052
0.372092
0.372092
0.372133
0.372173
0.372214
0.372254
0.372254
0.372294
0.372335
0.372375
0.372416
0.372416
0.372457
0.372497
0.372538
0.372578
0.372578
0.372619
0.37266
0.372701
0.372741
0.372741
0.372782
0.372823
0.372864
0.372905
0.372905
0.372946
0.372987
0.373028
0.373069
0.373069
0.37311
0.373151
0.373192
0.373233
0.373233
0.373274
0.373315
0.373357
0.373398
0.373398
0.373439
0.37348
0.373522
0.373563
0.373563
0.373604
0.373646
0.373687
0.373729
0.373729
0.37377
0.373812
0.373853
0.373895
0.373895
0.373937
0.373978
0.37402
0.374062
0.374062
0.374103
0.374145
0.374187
0.374229
0.374229
0.374271
0.374313
0.374354
0.374396
0.374396
0.374438
0.37448
0.374522
0.374564
0.374564
0.374607
0.374649
0.374691
0.374733
0.374733
0.374775
0.374817
0.37486
0.374902
0.374902
0.374944
0.374987
0.375029
0.375071
0.375071
0.375114
0.375156
0.375199
0.375241
0.375241
0.375284
0.375326
0.375369
0.375412
0.375412
0.375454
0.375497
0.37554
0.375582
0.375582
0.375625
0.375668
0.375711
0.375754
0.375754
0.375797
0.37584
0.375883
0.375926
0.375926
0.375969
0.376012
0.376055
0.376098
0.376098
0.376141
0.376184
0.376227
0.37627
0.37627
0.376314
0.376357
0.3764
0.376444
0.376444
0.376487
0.37653
0.376574
0.376617
0.376617
0.376661
0.376704
0.376748
0.376791
0.376791
0.376835
0.376878
0.376922
0.376966
0.376966
0.377009
0.377053
0.377097
0.377141
0.377141
0.377185
0.377228
0.377272
0.377316
0.377316
0.37736
0.377404
0.377448
0.377492
0.377492
0.377536
0.37758
0.377624
0.377668
0.377668
0.377713
0.377757
0.377801
0.377845
0.377845
0.37789
0.377934
0.377978
0.378023
0.378023
0.378067
0.378111
0.378156
0.3782
0.3782
0.378245
0.378289
0.378334
0.378379
0.378379
0.378423
0.378468
0.378513
0.378557
0.378557
0.378602
0.378647
0.378692
0.378736
0.378736
0.378781
0.378826
0.378871
0.378916
0.378916
0.378961
0.379006
0.379051
0.379096
0.379096
0.379141
0.379186
0.379231
0.379277
0.379277
0.379322
0.379367
0.379412
0.379458
0.379458
0.379503
0.379548
0.379594
0.379639
0.379639
0.379684
0.37973
0.379775
0.379821
0.379821
0.379866
0.379912
0.379958
0.380003
0.380003
0.380049
0.380095
0.38014
0.380186
0.380186
0.380232
0.380278
0.380324
0.380369
0.380369
0.380415
0.380461
0.380507
0.380553
0.380553
0.380599
0.380645
0.380691
0.380737
0.380737
0.380783
0.38083
0.380876
0.380922
0.380922
0.380968
0.381014
0.381061
0.381107
0.381107
0.381153
0.3812
0.381246
0.381293
0.381293
0.381339
0.381386
0.381432
0.381479
0.381479
0.381525
0.381572
0.381619
0.381665
0.381665
0.381712
0.381759
0.381805
0.381852
0.381852
0.381899
0.381946
0.381993
0.38204
0.38204
0.382087
0.382133
0.38218
0.382227
0.382227
0.382275
0.382322
0.382369
0.382416
0.382416
0.382463
0.38251
0.382557
0.382605
0.382605
0.382652
0.382699
0.382747
0.382794
0.382794
0.382841
0.382889
0.382936
0.382984
0.382984
0.383031
0.383079
0.383126
0.383174
0.383174
0.383221
0.383269
0.383317
0.383364
0.383364
0.383412
0.38346
0.383508
0.383555
0.383555
0.383603
0.383651
0.383699
0.383747
0.383747
0.383795
0.383843
0.383891
0.383939
0.383939
0.383987
0.384035
0.384083
0.384131
0.384131
0.38418
0.384228
0.384276
0.384324
0.384324
0.384373
0.384421
0.384469
0.384518
0.384518
0.384566
0.384615
0.384663
0.384712
0.384712
0.38476
0.384809
0.384857
0.384906
0.384906
0.384954
0.385003
0.385052
0.385101
0.385101
0.385149
0.385198
0.385247
0.385296
0.385296
0.385345
0.385394
0.385442
0.385491
0.385491
0.38554
0.385589
0.385638
0.385688
0.385688
0.385737
0.385786
0.385835
0.385884
0.385884
0.385933
0.385983
0.386032
0.386081
0.386081
0.38613
0.38618
0.386229
0.386279
0.386279
0.386328
0.386378
0.386427
0.386477
0.386477
0.386526
0.386576
0.386625
0.386675
0.386675
0.386725
0.386774
0.386824
0.386874
0.386874
0.386924
0.386973
0.387023
0.387073
0.387073
0.387123
0.387173
0.387223
0.387273
0.387273
0.387323
0.387373
0.387423
0.387473
0.387473
0.387523
0.387573
0.387624
0.387674
0.387674
0.387724
0.387774
0.387825
0.387875
0.387875
0.387925
0.387976
0.388026
0.388076
0.388076
0.388127
0.388177
0.388228
0.388278
0.388278
0.388329
0.38838
0.38843
0.388481
0.388481
0.388532
0.388582
0.388633
0.388684
0.388684
0.388735
0.388786
0.388836
0.388887
0.388887
0.388938
0.388989
0.38904
0.389091
0.389091
0.389142
0.389193
0.389244
0.389295
0.389295
0.389347
0.389398
0.389449
0.3895
0.3895
0.389551
0.389603
0.389654
0.389705
0.389705
0.389757
0.389808
0.38986
0.389911
0.389911
0.389963
0.390014
0.390066
0.390117
0.390117
0.390169
0.39022
0.390272
0.390324
0.390324
0.390376
0.390427
0.390479
0.390531
0.390531
0.390583
0.390635
0.390686
0.390738
0.390738
0.39079
0.390842
0.390894
0.390946
0.390946
0.390998
0.39105
0.391103
0.391155
0.391155
0.391207
0.391259
0.391311
0.391364
0.391364
0.391416
0.391468
0.39152
0.391573
0.391573
0.391625
0.391678
0.39173
0.391783
0.391783
0.391835
0.391888
0.39194
0.391993
0.391993
0.392045
0.392098
0.392151
0.392203
0.392203
0.392256
0.392309
0.392362
0.392415
0.392415
0.392467
0.39252
0.392573
0.392626
0.392626
0.392679
0.392732
0.392785
0.392838
0.392838
0.392891
0.392944
0.392997
0.393051
0.393051
0.393104
0.393157
0.39321
0.393263
0.393263
0.393317
0.39337
0.393423
0.393477
0.393477
0.39353
0.393584
0.393637
0.393691
0.393691
0.393744
0.393798
0.393851
0.393905
0.393905
0.393959
0.394012
0.394066
0.39412
0.39412
0.394173
0.394227
0.394281
0.394335
0.394335
0.394389
0.394443
0.394496
0.39455
0.39455
0.394604
0.394658
0.394712
0.394767
0.394767
0.394821
0.394875
0.394929
0.394983
0.394983
0.395037
0.395091
0.395146
0.3952
0.3952
0.395254
0.395309
0.395363
0.395417
0.395417
0.395472
0.395526
0.395581
0.395635
0.395635
0.39569
0.395744
0.395799
0.395854
0.395854
0.395908
0.395963
0.396018
0.396072
0.396072
0.396127
0.396182
0.396237
0.396292
0.396292
0.396347
0.396401
0.396456
0.396511
0.396511
0.396566
0.396621
0.396676
0.396731
0.396731
0.396787
0.396842
0.396897
0.396952
0.396952
0.397007
0.397062
0.397118
0.397173
0.397173
0.397228
0.397284
0.397339
0.397395
0.397395
0.39745
0.397505
0.397561
0.397616
0.397616
0.397672
0.397728
0.397783
0.397839
0.397839
0.397895
0.39795
0.398006
0.398062
0.398062
0.398117
0.398173
0.398229
0.398285
0.398285
0.398341
0.398397
0.398453
0.398509
0.398509
0.398565
0.398621
0.398677
0.398733
0.398733
0.398789
0.398845
0.398901
0.398957
0.398957
0.399014
0.39907
0.399126
0.399183
0.399183
0.399239
0.399295
0.399352
0.399408
0.399408
0.399464
0.399521
0.399577
0.399634
0.399634
0.399691
0.399747
0.399804
0.39986
0.39986
0.399917
0.399974
0.400031
0.400087
0.400087
0.400144
0.400201
0.400258
0.400315
0.400315
0.400371
0.400428
0.400485
0.400542
0.400542
0.400599
0.400656
0.400713
0.400771
0.400771
0.400828
0.400885
0.400942
0.400999
0.400999
0.401056
0.401114
0.401171
0.401228
0.401228
0.401286
0.401343
0.4014
0.401458
0.401458
0.401515
0.401573
0.40163
0.401688
0.401688
0.401745
0.401803
0.401861
0.401918
0.401918
0.401976
0.402034
0.402091
0.402149
0.402149
0.402207
0.402265
0.402323
0.40238
0.40238
0.402438
0.402496
0.402554
0.402612
0.402612
0.40267
0.402728
0.402786
0.402844
0.402844
0.402903
0.402961
0.403019
0.403077
0.403077
0.403135
0.403194
0.403252
0.40331
0.40331
0.403369
0.403427
0.403485
0.403544
0.403544
0.403602
0.403661
0.403719
0.403778
0.403778
0.403836
0.403895
0.403954
0.404012
0.404012
0.404071
0.40413
0.404188
0.404247
0.404247
0.404306
0.404365
0.404424
0.404483
0.404483
0.404541
0.4046
0.404659
0.404718
0.404718
0.404777
0.404836
0.404895
0.404955
0.404955
0.405014
0.405073
0.405132
0.405191
0.405191
0.405251
0.40531
0.405369
0.405428
0.405428
0.405488
0.405547
0.405607
0.405666
0.405666
0.405725
0.405785
0.405844
0.405904
0.405904
0.405964
0.406023
0.406083
0.406142
0.406142
0.406202
0.406262
0.406322
0.406381
0.406381
0.406441
0.406501
0.406561
0.406621
0.406621
0.406681
0.406741
0.406801
0.40686
0.40686
0.406921
0.406981
0.407041
0.407101
0.407101
0.407161
0.407221
0.407281
0.407341
0.407341
0.407402
0.407462
0.407522
0.407583
0.407583
0.407643
0.407703
0.407764
0.407824
0.407824
0.407885
0.407945
0.408006
0.408066
0.408066
0.408127
0.408187
0.408248
0.408309
0.408309
0.408369
0.40843
0.408491
0.408551
0.408551
0.408612
0.408673
0.408734
0.408795
0.408795
0.408856
0.408917
0.408978
0.409039
0.409039
0.4091
0.409161
0.409222
0.409283
0.409283
0.409344
0.409405
0.409466
0.409527
0.409527
0.409589
0.40965
0.409711
0.409773
0.409773
0.409834
0.409895
0.409957
0.410018
0.410018
0.41008
0.410141
0.410203
0.410264
0.410264
0.410326
0.410387
0.410449
0.410511
0.410511
0.410572
0.410634
0.410696
0.410757
0.410757
0.410819
0.410881
0.410943
0.411005
0.411005
0.411067
0.411129
0.411191
0.411253
0.411253
0.411315
0.411377
0.411439
0.411501
0.411501
0.411563
0.411625
0.411687
0.411749
0.411749
0.411812
0.411874
0.411936
0.411999
0.411999
0.412061
0.412123
0.412186
0.412248
0.412248
0.412311
0.412373
0.412435
0.412498
0.412498
0.412561
0.412623
0.412686
0.412748
0.412748
0.412811
0.412874
0.412937
0.412999
0.412999
0.413062
0.413125
0.413188
0.413251
0.413251
0.413313
0.413376
0.413439
0.413502
0.413502
0.413565
0.413628
0.413691
0.413755
0.413755
0.413818
0.413881
0.413944
0.414007
0.414007
0.41407
0.414134
0.414197
0.41426
0.41426
0.414324
0.414387
0.41445
0.414514
0.414514
0.414577
0.414641
0.414704
0.414768
0.414768
0.414831
0.414895
0.414958
0.415022
0.415022
0.415086
0.415149
0.415213
0.415277
0.415277
0.415341
0.415404
0.415468
0.415532
0.415532
0.415596
0.41566
0.415724
0.415788
0.415788
0.415852
0.415916
0.41598
0.416044
0.416044
0.416108
0.416172
0.416236
0.4163
0.4163
0.416365
0.416429
0.416493
0.416557
0.416557
0.416622
0.416686
0.416751
0.416815
0.416815
0.416879
0.416944
0.417008
0.417073
0.417073
0.417137
0.417202
0.417267
0.417331
0.417331
0.417396
0.41746
0.417525
0.41759
0.41759
0.417655
0.417719
0.417784
0.417849
0.417849
0.417914
0.417979
0.418044
0.418109
0.418109
0.418174
0.418239
0.418304
0.418369
0.418369
0.418434
0.418499
0.418564
0.418629
0.418629
0.418695
0.41876
0.418825
0.41889
0.41889
0.418956
0.419021
0.419086
0.419152
0.419152
0.419217
0.419283
0.419348
0.419414
0.419414
0.419479
0.419545
0.41961
0.419676
0.419676
0.419741
0.419807
0.419873
0.419939
0.419939
0.420004
0.42007
0.420136
0.420202
0.420202
0.420268
0.420333
0.420399
0.420465
0.420465
0.420531
0.420597
0.420663
0.420729
0.420729
0.420795
0.420861
0.420928
0.420994
0.420994
0.42106
0.421126
0.421192
0.421259
0.421259
0.421325
0.421391
0.421458
0.421524
0.421524
0.42159
0.421657
0.421723
0.42179
0.42179
0.421856
0.421923
0.421989
0.422056
0.422056
0.422123
0.422189
0.422256
0.422323
0.422323
0.422389
0.422456
0.422523
0.42259
0.42259
0.422657
0.422723
0.42279
0.422857
0.422857
0.422924
0.422991
0.423058
0.423125
0.423125
0.423192
0.423259
0.423326
0.423394
0.423394
0.423461
0.423528
0.423595
0.423662
0.423662
0.42373
0.423797
0.423864
0.423932
0.423932
0.423999
0.424066
0.424134
0.424201
0.424201
0.424269
0.424336
0.424404
0.424471
0.424471
0.424539
0.424607
0.424674
0.424742
0.424742
0.42481
0.424877
0.424945
0.425013
0.425013
0.425081
0.425149
0.425217
0.425284
0.425284
0.425352
0.42542
0.425488
0.425556
0.425556
0.425624
0.425692
0.425761
0.425829
0.425829
0.425897
0.425965
0.426033
0.426101
0.426101
0.42617
0.426238
0.426306
0.426375
0.426375
0.426443
0.426511
0.42658
0.426648
0.426648
0.426717
0.426785
0.426854
0.426922
0.426922
0.426991
0.427059
0.427128
0.427197
0.427197
0.427265
0.427334
0.427403
0.427472
0.427472
0.42754
0.427609
0.427678
0.427747
0.427747
0.427816
0.427885
0.427954
0.428023
0.428023
0.428092
0.428161
0.42823
0.428299
0.428299
0.428368
0.428437
0.428506
0.428576
0.428576
0.428645
0.428714
0.428783
0.428853
0.428853
0.428922
0.428991
0.429061
0.42913
0.42913
0.4292
0.429269
0.429339
0.429408
0.429408
0.429478
0.429547
0.429617
0.429686
0.429686
0.429756
0.429826
0.429896
0.429965
0.429965
0.430035
0.430105
0.430175
0.430244
0.430244
0.430314
0.430384
0.430454
0.430524
0.430524
0.430594
0.430664
0.430734
0.430804
0.430804
0.430874
0.430944
0.431015
0.431085
0.431085
0.431155
0.431225
0.431296
0.431366
0.431366
0.431436
0.431506
0.431577
0.431647
0.431647
0.431718
0.431788
0.431859
0.431929
0.431929
0.432
0.43207
0.432141
0.432211
0.432211
0.432282
0.432353
0.432423
0.432494
0.432494
0.432565
0.432636
0.432706
0.432777
0.432777
0.432848
0.432919
0.43299
0.433061
0.433061
0.433132
0.433203
0.433274
0.433345
0.433345
0.433416
0.433487
0.433558
0.433629
0.433629
0.4337
0.433772
0.433843
0.433914
0.433914
0.433985
0.434057
0.434128
0.434199
0.434199
0.434271
0.434342
0.434414
0.434485
0.434485
0.434556
0.434628
0.4347
0.434771
0.434771
0.434843
0.434914
0.434986
0.435058
0.435058
0.435129
0.435201
0.435273
0.435345
0.435345
0.435417
0.435488
0.43556
0.435632
0.435632
0.435704
0.435776
0.435848
0.43592
0.43592
0.435992
0.436064
0.436136
0.436208
0.436208
0.436281
0.436353
0.436425
0.436497
0.436497
0.436569
0.436642
0.436714
0.436786
0.436786
0.436859
0.436931
0.437003
0.437076
0.437076
0.437148
0.437221
0.437293
0.437366
0.437366
0.437438
0.437511
0.437584
0.437656
0.437656
0.437729
0.437802
0.437874
0.437947
0.437947
0.43802
0.438093
0.438166
0.438239
0.438239
0.438311
0.438384
0.438457
0.43853
0.43853
0.438603
0.438676
0.438749
0.438822
0.438822
0.438896
0.438969
0.439042
0.439115
0.439115
0.439188
0.439262
0.439335
0.439408
0.439408
0.439481
0.439555
0.439628
0.439702
0.439702
0.439775
0.439848
0.439922
0.439995
0.439995
0.440069
0.440143
0.440216
0.44029
0.44029
0.440363
0.440437
0.440511
0.440585
0.440585
0.440658
0.440732
0.440806
0.44088
0.44088
0.440954
0.441027
0.441101
0.441175
0.441175
0.441249
0.441323
0.441397
0.441471
0.441471
0.441545
0.44162
0.441694
0.441768
0.441768
0.441842
0.441916
0.44199
0.442065
0.442065
0.442139
0.442213
0.442288
0.442362
0.442362
0.442436
0.442511
0.442585
0.44266
0.44266
0.442734
0.442809
0.442883
0.442958
0.442958
0.443033
0.443107
0.443182
0.443257
0.443257
0.443331
0.443406
0.443481
0.443556
0.443556
0.44363
0.443705
0.44378
0.443855
0.443855
0.44393
0.444005
0.44408
0.444155
0.444155
0.44423
0.444305
0.44438
0.444455
0.444455
0.44453
0.444606
0.444681
0.444756
0.444756
0.444831
0.444907
0.444982
0.445057
0.445057
0.445133
0.445208
0.445283
0.445359
0.445359
0.445434
0.44551
0.445585
0.445661
0.445661
0.445736
0.445812
0.445888
0.445963
0.445963
0.446039
0.446115
0.44619
0.446266
0.446266
0.446342
0.446418
0.446494
0.446569
0.446569
0.446645
0.446721
0.446797
0.446873
0.446873
0.446949
0.447025
0.447101
0.447177
0.447177
0.447253
0.44733
0.447406
0.447482
0.447482
0.447558
0.447634
0.447711
0.447787
0.447787
0.447863
0.44794
0.448016
0.448092
0.448092
0.448169
0.448245
0.448322
0.448398
0.448398
0.448475
0.448551
0.448628
0.448705
0.448705
0.448781
0.448858
0.448935
0.449011
0.449011
0.449088
0.449165
0.449242
0.449318
0.449318
0.449395
0.449472
0.449549
0.449626
0.449626
0.449703
0.44978
0.449857
0.449934
0.449934