<?xml version="1.0"?>
<VTKFile type="UnstructuredGrid" version="0.1" byte_order="LittleEndian">
<UnstructuredGrid>
<Piece NumberOfPoints="5000" NumberOfCells="4000">
<PointData Scalars="Reaction 0">
<DataArray type="Float32" Name="Reaction 0" format="ascii">
0.564983
0.564983
0.564983
0.564983
0.564983
0.564983
0.564983
0.564983
0.564983
0.564983
0.564983
0.564983
0.564983
0.564983
0.564983
0.564983
0.564983
0.564983
0.564983
0.564983
0.564983
0.564983
0.564983
0.564983
0.564983
0.564983
0.564983
0.564983
0.564983
0.564983
0.564983
0.564983
0.564983
0.564983
0.564983
0.564983
0.564983
0.564983
0.564983
0.564983
0.564983
0.564983
0.564983
0.564983
0.564983
0.564983
0.564983
0.564983
0.564983
0.564983
0.564983
0.564983
0.564983
0.564983
0.564983
0.564983
0.564983
0.564983
0.564983
0.564983
0.564983
0.564983
0.564983
0.564983
0.564983
0.564983
0.564983
0.564983
0.564983
0.564983
0.564983
0.564983
0.564984
0.564984
0.564984
0.564984
0.564984
0.564984
0.564984
0.564984
0.564984
0.564984
0.564984
0.564984
0.564984
0.564984
0.564984
0.564984
0.564984
0.564984
0.564984
0.564984
0.564984
0.564984
0.564984
0.564984
0.564984
0.564984
0.564984
0.564984
0.564984
0.564984
0.564984
0.564984
0.564985
0.564985
0.564985
0.564985
0.564985
0.564985
0.564985
0.564985
0.564985
0.564985
0.564985
0.564985
0.564985
0.564985
0.564985
0.564985
0.564985
0.564985
0.564985
0.564985
0.564985
0.564985
0.564985
0.564985
0.564986
0.564986
0.564986
0.564986
0.564986
0.564986
0.564986
0.564986
0.564986
0.564986
0.564986
0.564986
0.564986
0.564986
0.564986
0.564986
0.564986
0.564986
0.564986
0.564986
0.564987
0.564987
0.564987
0.564987
0.564987
0.564987
0.564987
0.564987
0.564987
0.564987
0.564987
0.564987
0.564987
0.564987
0.564987
0.564987
0.564987
0.564987
0.564987
0.564988
0.564988
0.564988
0.564988
0.564988
0.564988
0.564988
0.564988
0.564988
0.564988
0.564988
0.564988
0.564988
0.564988
0.564988
0.564989
0.564989
0.564989
0.564989
0.564989
0.564989
0.564989
0.564989
0.564989
0.564989
0.564989
0.564989
0.564989
0.564989
0.564989
0.56499
0.56499
0.56499
0.56499
0.56499
0.56499
0.56499
0.56499
0.56499
0.56499
0.56499
0.56499
0.56499
0.56499
0.564991
0.564991
0.564991
0.564991
0.564991
0.564991
0.564991
0.564991
0.564991
0.564991
0.564991
0.564991
0.564992
0.564992
0.564992
0.564992
0.564992
0.564992
0.564992
0.564992
0.564992
0.564992
0.564992
0.564992
0.564992
0.564993
0.564993
0.564993
0.564993
0.564993
0.564993
0.564993
0.564993
0.564993
0.564993
0.564993
0.564994
0.564994
0.564994
0.564994
0.564994
0.564994
0.564994
0.564994
0.564994
0.564994
0.564994
0.564995
0.564995
0.564995
0.564995
0.564995
0.564995
0.564995
0.564995
0.564995
0.564995
0.564995
0.564996
0.564996
0.564996
0.564996
0.564996
0.564996
0.564996
0.564996
0.564996
0.564996
0.564997
0.564997
0.564997
0.564997
0.564997
0.564997
0.564997
0.564997
0.564997
0.564997
0.564998
0.564998
0.564998
0.564998
0.564998
0.564998
0.564998
0.564998
0.564998
0.564999
0.564999
0.564999
0.564999
0.564999
0.564999
0.564999
0.564999
0.564999
0.564999
0.565
0.565
0.565
0.565
0.565
0.565
0.565
0.565
0.565
0.565001
0.565001
0.565001
0.565001
0.565001
0.565001
0.565001
0.565001
0.565001
0.565002
0.565002
0.565002
0.565002
0.565002
0.565002
0.565002
0.565002
0.565003
0.565003
0.565003
0.565003
0.565003
0.565003
0.565003
0.565003
0.565004
0.565004
0.565004
0.565004
0.565004
0.565004
0.565004
0.565004
0.565004
0.565005
0.565005
0.565005
0.565005
0.565005
0.565005
0.565005
0.565006
0.565006
0.565006
0.565006
0.565006
0.565006
0.565006
0.565006
0.565007
0.565007
0.565007
0.565007
0.565007
0.565007
0.565007
0.565008
0.565008
0.565008
0.565008
0.565008
0.565008
0.565008
0.565008
0.565009
0.565009
0.565009
0.565009
0.565009
0.565009
0.565009
0.56501
0.56501
0.56501
0.56501
0.56501
0.56501
0.565011
0.565011
0.565011
0.565011
0.565011
0.565011
0.565011
0.565011
0.565012
0.565012
0.565012
0.565012
0.565012
0.565012
0.565012
0.565013
0.565013
0.565013
0.565013
0.565013
0.565013
0.565013
0.565014
0.565014
0.565014
0.565014
0.565014
0.565014
0.565015
0.565015
0.565015
0.565015
0.565015
0.565015
0.565016
0.565016
0.565016
0.565016
0.565016
0.565016
0.565016
0.565016
0.565017
0.565017
0.565017
0.565017
0.565017
0.565017
0.565018
0.565018
0.565018
0.565018
0.565018
0.565018
0.565019
0.565019
0.565019
0.565019
0.565019
0.565019
0.56502
0.56502
0.56502
0.56502
0.56502
0.565021
0.565021
0.565021
0.565021
0.565021
0.565021
0.565021
0.565022
0.565022
0.565022
0.565022
0.565022
0.565022
0.565023
0.565023
0.565023
0.565023
0.565023
0.565023
0.565024
0.565024
0.565024
0.565024
0.565024
0.565025
0.565025
0.565025
0.565025
0.565025
0.565025
0.565026
0.565026
0.565026
0.565026
0.565026
0.565027
0.565027
0.565027
0.565027
0.565027
0.565027
0.565027
0.565028
0.565028
0.565028
0.565028
0.565028
0.565029
0.565029
0.565029
0.565029
0.565029
0.56503
0.56503
0.56503
0.56503
0.56503
0.56503
0.565031
0.565031
0.565031
0.565031
0.565031
0.565032
0.565032
0.565032
0.565032
0.565032
0.565033
0.565033
0.565033
0.565033
0.565033
0.565034
0.565034
0.565034
0.565034
0.565034
0.565035
0.565035
0.565035
0.565035
0.565035
0.565036
0.565036
0.565036
0.565036
0.565036
0.565036
0.565037
0.565037
0.565037
0.565037
0.565037
0.565038
0.565038
0.565038
0.565038
0.565039
0.565039
0.565039
0.565039
0.565039
0.56504
0.56504
0.56504
0.56504
0.56504
0.565041
0.565041
0.565041
0.565041
0.565041
0.565042
0.565042
0.565042
0.565042
0.565042
0.565043
0.565043
0.565043
0.565043
0.565043
0.565044
0.565044
0.565044
0.565044
0.565044
0.565045
0.565045
0.565045
0.565045
0.565046
0.565046
0.565046
0.565046
0.565046
0.565047
0.565047
0.565047
0.565047
0.565047
0.565048
0.565048
0.565048
0.565049
0.565049
0.565049
0.565049
0.565049
0.56505
0.56505
0.56505
0.56505
0.565051
0.565051
0.565051
0.565051
0.565051
0.565052
0.565052
0.565052
0.565052
0.565052
0.565053
0.565053
0.565053
0.565053
0.565054
0.565054
0.565054
0.565054
0.565054
0.565055
0.565055
0.565055
0.565055
0.565056
0.565056
0.565056
0.565057
0.565057
0.565057
0.565057
0.565057
0.565058
0.565058
0.565058
0.565058
0.565059
0.565059
0.565059
0.565059
0.565059
0.56506
0.56506
0.56506
0.56506
0.565061
0.565061
0.565061
0.565061
0.565062
0.565062
0.565062
0.565062
0.565062
0.565063
0.565063
0.565063
0.565064
0.565064
0.565064
0.565064
0.565065
0.565065
0.565065
0.565065
0.565066
0.565066
0.565066
0.565066
0.565067
0.565067
0.565067
0.565067
0.565067
0.565068
0.565068
0.565068
0.565069
0.565069
0.565069
0.565069
0.56507
0.56507
0.56507
0.56507
0.565071
0.565071
0.565071
0.565071
0.565072
0.565072
0.565072
0.565073
0.565073
0.565073
0.565073
0.565074
0.565074
0.565074
0.565074
0.565075
0.565075
0.565075
0.565075
0.565075
0.565076
0.565076
0.565076
0.565076
0.565077
0.565077
0.565077
0.565078
0.565078
0.565078
0.565078
0.565079
0.565079
0.565079
0.565079
0.56508
0.56508
0.565081
0.565081
0.565081
0.565081
0.565082
0.565082
0.565082
0.565082
0.565083
0.565083
0.565083
0.565083
0.565084
0.565084
0.565084
0.565085
0.565085
0.565085
0.565085
0.565086
0.565086
0.565086
0.565086
0.565087
0.565087
0.565087
0.565087
0.565088
0.565088
0.565088
0.565089
0.565089
0.565089
0.56509
0.56509
0.56509
0.56509
0.565091
0.565091
0.565091
0.565092
0.565092
0.565092
0.565092
0.565093
0.565093
0.565093
0.565093
0.565094
0.565094
0.565095
0.565095
0.565095
0.565095
0.565096
0.565096
0.565096
0.565096
0.565097
0.565097
0.565097
0.565097
0.565098
0.565098
0.565098
0.565099
0.565099
0.565099
0.5651
0.5651
0.5651
0.5651
0.565101
0.565101
0.565102
0.565102
0.565102
0.565102
0.565103
0.565103
0.565103
0.565103
0.565104
0.565104
0.565105
0.565105
0.565105
0.565105
0.565106
0.565106
0.565107
0.565107
0.565107
0.565107
0.565108
0.565108
0.565108
0.565108
0.565109
0.565109
0.56511
0.56511
0.56511
0.56511
0.565111
0.565111
0.565111
0.565112
0.565112
0.565112
0.565113
0.565113
0.565113
0.565114
0.565114
0.565114
0.565114
0.565115
0.565115
0.565116
0.565116
0.565116
0.565116
0.565117
0.565117
0.565118
0.565118
0.565118
0.565118
0.565119
0.565119
0.565119
0.56512
0.56512
0.56512
0.565121
0.565121
0.565121
0.565122
0.565122
0.565122
0.565122
0.565123
0.565123
0.565124
0.565124
0.565124
0.565124
0.565125
0.565125
0.565126
0.565126
0.565126
0.565127
0.565127
0.565127
0.565127
0.565128
0.565128
0.565129
0.565129
0.565129
0.565129
0.56513
0.56513
0.565131
0.565131
0.565131
0.565132
0.565132
0.565132
0.565132
0.565133
0.565133
0.565134
0.565134
0.565134
0.565135
0.565135
0.565135
0.565136
0.565136
0.565136
0.565137
0.565137
0.565138
0.565138
0.565138
0.565138
0.565139
0.565139
0.565139
0.56514
0.56514
0.565141
0.565141
0.565141
0.565141
0.565142
0.565142
0.565143
0.565143
0.565143
0.565144
0.565144
0.565145
0.565145
0.565145
0.565145
0.565146
0.565146
0.565146
0.565147
0.565147
0.565148
0.565148
0.565148
0.565149
0.565149
0.565149
0.56515
0.56515
0.56515
0.565151
0.565151
0.565152
0.565152
0.565152
0.565153
0.565153
0.565154
0.565154
0.565154
0.565154
0.565155
0.565155
0.565155
0.565156
0.565156
0.565157
0.565157
0.565157
0.565158
0.565158
0.565159
0.565159
0.565159
0.56516
0.56516
0.56516
0.565161
0.565161
0.565161
0.565162
0.565162
0.565163
0.565163
0.565163
0.565164
0.565164
0.565165
0.565165
0.565165
0.565166
0.565166
0.565167
0.565167
0.565167
0.565168
0.565168
0.565168
0.565168
0.565169
0.565169
0.56517
0.56517
0.56517
0.565171
0.565171
0.565172
0.565172
0.565172
0.565173
0.565173
0.565174
0.565174
0.565174
0.565175
0.565175
0.565176
0.565176
0.565176
0.565177
0.565177
0.565178
0.565178
0.565178
0.565179
0.565179
0.56518
0.56518
0.56518
0.565181
0.565181
0.565182
0.565182
0.565182
0.565183
0.565183
0.565184
0.565184
0.565184
0.565185
0.565185
0.565186
0.565186
0.565186
0.565187
0.565187
0.565188
0.565188
0.565188
0.565189
0.565189
0.56519
0.56519
0.56519
0.565191
0.565191
0.565192
0.565192
0.565192
0.565193
0.565193
0.565194
0.565194
0.565194
0.565195
0.565195
0.565196
0.565196
0.565196
0.565197
0.565197
0.565198
0.565198
0.565198
0.565199
0.565199
0.5652
0.5652
0.5652
0.565201
0.565201
0.565202
0.565203
0.565203
0.565203
0.565204
0.565204
0.565205
0.565205
0.565205
0.565206
0.565206
0.565207
0.565207
0.565207
0.565208
0.565208
0.565209
0.565209
0.565209
0.56521
0.56521
0.565211
0.565211
0.565212
0.565212
0.565213
0.565213
0.565213
0.565214
0.565214
0.565215
0.565215
0.565215
0.565216
0.565216
0.565217
0.565217
0.565217
0.565218
0.565219
0.565219
0.56522
0.56522
0.56522
0.565221
0.565221
0.565222
0.565222
0.565222
0.565223
0.565224
0.565224
0.565224
0.565225
0.565225
0.565226
0.565226
0.565226
0.565227
0.565227
0.565228
0.565228
0.565228
0.565229
0.56523
0.56523
0.565231
0.565231
0.565231
0.565232
0.565232
0.565233
0.565233
0.565234
0.565234
0.565235
0.565235
0.565235
0.565236
0.565236
0.565237
0.565238
0.565238
0.565238
0.565239
0.565239
0.56524
0.56524
0.56524
0.565241
0.565242
0.565242
0.565242
0.565243
0.565243
0.565244
0.565244
0.565244
0.565245
0.565246
0.565246
0.565247
0.565247
0.565247
0.565248
0.565248
0.565249
0.565249
0.56525
0.56525
0.565251
0.565251
0.565251
0.565252
0.565253
0.565253
0.565254
0.565254
0.565254
0.565255
0.565256
0.565256
0.565256
0.565257
0.565257
0.565258
0.565258
0.565258
0.565259
0.56526
0.56526
0.565261
0.565261
0.565261
0.565262
0.565263
0.565263
0.565263
0.565264
0.565264
0.565265
0.565266
0.565266
0.565266
0.565267
0.565267
0.565268
0.565268
0.565269
0.565269
0.56527
0.565271
0.565271
0.565271
0.565272
0.565272
0.565273
0.565273
0.565274
0.565274
0.565275
0.565275
0.565275
0.565276
0.565277
0.565277
0.565278
0.565278
0.565279
0.565279
0.56528
0.56528
0.56528
0.565281
0.565282
0.565282
0.565283
0.565283
0.565283
0.565284
0.565285
0.565285
0.565285
0.565286
0.565287
0.565287
0.565288
0.565288
0.565288
0.565289
0.56529
0.56529
0.56529
0.565291
0.565292
0.565292
0.565293
0.565293
0.565293
0.565294
0.565295
0.565295
0.565295
0.565296
0.565297
0.565297
0.565298
0.565298
0.565299
0.565299
0.5653
0.565301
0.565301
0.565301
0.565302
0.565303
0.565303
0.565303
0.565304
0.565305
0.565305
0.565306
0.565306
0.565307
0.565307
0.565308
0.565308
0.565308
0.565309
0.56531
0.56531
0.565311
0.565311
0.565312
0.565312
0.565313
0.565314
0.565314
0.565314
0.565315
0.565316
0.565316
0.565316
0.565317
0.565318
0.565318
0.565319
0.565319
0.56532
0.56532
0.565321
0.565322
0.565322
0.565322
0.565323
0.565324
0.565324
0.565324
0.565325
0.565326
0.565326
0.565327
0.565327
0.565328
0.565328
0.565329
0.56533
0.56533
0.56533
0.565331
0.565332
0.565333
0.565333
0.565333
0.565334
0.565335
0.565335
0.565335
0.565336
0.565337
0.565337
0.565338
0.565338
0.565339
0.565339
0.56534
0.565341
0.565341
0.565341
0.565342
0.565343
0.565344
0.565344
0.565344
0.565345
0.565346
0.565346
0.565346
0.565347
0.565348
0.565348
0.565349
0.565349
0.56535
0.565351
0.565351
0.565352
0.565352
0.565353
0.565353
0.565354
0.565355
0.565355
0.565356
0.565356
0.565357
0.565358
0.565358
0.565358
0.565359
0.56536
0.56536
0.56536
0.565361
0.565362
0.565363
0.565363
0.565363
0.565364
0.565365
0.565366
0.565366
0.565366
0.565367
0.565368
0.565368
0.565369
0.565369
0.56537
0.565371
0.565371
0.565372
0.565372
0.565373
0.565373
0.565374
0.565375
0.565375
0.565376
0.565376
0.565377
0.565378
0.565378
0.565379
0.565379
0.56538
0.565381
0.565381
0.565382
0.565382
0.565383
0.565384
0.565384
0.565385
0.565385
0.565386
0.565387
0.565387
0.565387
0.565388
0.565389
0.56539
0.56539
0.56539
0.565391
0.565392
0.565393
0.565393
0.565393
0.565394
0.565395
0.565396
0.565396
0.565396
0.565397
0.565398
0.565399
0.565399
0.565399
0.5654
0.565401
0.565402
0.565402
0.565403
0.565403
0.565404
0.565405
0.565405
0.565406
0.565406
0.565407
0.565408
0.565408
0.565409
0.565409
0.56541
0.565411
0.565411
0.565412
0.565412
0.565413
0.565414
0.565414
0.565415
0.565416
0.565416
0.565417
0.565417
0.565418
0.565419
0.565419
0.56542
0.56542
0.565421
0.565422
0.565423
0.565423
0.565423
0.565424
0.565425
0.565426
0.565427
0.565427
0.565427
0.565428
0.565429
0.56543
0.56543
0.56543
0.565431
0.565432
0.565433
0.565433
0.565434
0.565434
0.565435
0.565436
0.565436
0.565437
0.565438
0.565438
0.565439
0.565439
0.56544
0.565441
0.565442
0.565442
0.565442
0.565443
0.565444
0.565445
0.565446
0.565446
0.565446
0.565447
0.565448
0.565449
0.565449
0.56545
0.565451
0.565451
0.565452
0.565452
0.565453
0.565454
0.565455
0.565455
0.565455
0.565456
0.565457
0.565458
0.565459
0.565459
0.56546
0.56546
0.565461
0.565462
0.565462
0.565463
0.565464
0.565464
0.565465
0.565465
0.565466
0.565467
0.565468
0.565469
0.565469
0.565469
0.56547
0.565471
0.565472
0.565472
0.565473
0.565474
0.565474
0.565475
0.565475
0.565476
0.565477
0.565478
0.565479
0.565479
0.565479
0.56548
0.565481
0.565482
0.565482
0.565483
0.565484
0.565485
0.565485
0.565485
0.565486
0.565487
0.565488
0.565489
0.565489
0.56549
0.565491
0.565491
0.565492
0.565492
0.565493
0.565494
0.565495
0.565496
0.565496
0.565496
0.565497
0.565498
0.565499
0.565499
0.5655
0.565501
0.565502
0.565502
0.565502
0.565503
0.565504
0.565505
0.565506
0.565506
0.565507
0.565508
0.565509
0.56551
0.56551
0.56551
0.565511
0.565512
0.565513
0.565513
0.565514
0.565515
0.565516
0.565517
0.565517
0.565517
0.565518
0.565519
0.56552
0.56552
0.565521
0.565522
0.565523
0.565524
0.565524
0.565525
0.565525
0.565526
0.565527
0.565527
0.565528
0.565529
0.56553
0.565531
0.565531
0.565532
0.565533
0.565533
0.565534
0.565534
0.565535
0.565536
0.565537
0.565538
0.565538
0.565539
0.56554
0.565541
0.565542
0.565542
0.565543
0.565543
0.565544
0.565545
0.565545
0.565546
0.565547
0.565548
0.565549
0.565549
0.56555
0.565551
0.565552
0.565553
0.565553
0.565554
0.565554
0.565555
0.565556
0.565556
0.565557
0.565558
0.565559
0.56556
0.56556
0.565561
0.565562
0.565563
0.565564
0.565564
0.565565
0.565566
0.565566
0.565567
0.565567
0.565568
0.565569
0.56557
0.565571
0.565571
0.565572
0.565573
0.565574
0.565575
0.565575
0.565576
0.565577
0.565578
0.565579
0.565579
0.56558
0.565581
0.565582
0.565582
0.565582
0.565583
0.565584
0.565585
0.565586
0.565586
0.565587
0.565588
0.565589
0.56559
0.56559
0.565591
0.565592
0.565593
0.565594
0.565594
0.565595
0.565596
0.565597
0.565598
0.565598
0.565599
0.5656
0.565601
0.565602
0.565602
0.565603
0.565604
0.565605
0.565606
0.565606
0.565606
0.565607
0.565608
0.565609
0.565609
0.56561
0.565611
0.565612
0.565613
0.565613
0.565614
0.565615
0.565616
0.565617
0.565617
0.565618
0.565619
0.56562
0.565621
0.565621
0.565622
0.565623
0.565624
0.565625
0.565625
0.565626
0.565627
0.565628
0.565629
0.565629
0.56563
0.565631
0.565632
0.565633
0.565633
0.565634
0.565635
0.565636
0.565637
0.565637
0.565638
0.565639
0.56564
0.565641
0.565641
0.565642
0.565643
0.565644
0.565645
0.565645
0.565646
0.565647
0.565648
0.565649
0.565649
0.56565
0.565651
0.565652
0.565653
0.565653
0.565654
0.565655
0.565656
0.565657
0.565657
0.565658
0.565659
0.565661
0.565662
0.565662
0.565663
0.565664
0.565665
0.565666
0.565666
0.565667
0.565668
0.565669
0.56567
0.56567
0.565671
0.565672
0.565673
0.565674
0.565674
0.565675
0.565676
0.565677
0.565678
0.565678
0.565679
0.56568
0.565681
0.565682
0.565682
0.565683
0.565684
0.565685
0.565687
0.565687
0.565688
0.565689
0.56569
0.565691
0.565691
0.565692
0.565693
0.565694
0.565695
0.565695
0.565696
0.565697
0.565698
0.565699
0.565699
0.5657
0.565701
0.565702
0.565704
0.565704
0.565705
0.565706
0.565707
0.565708
0.565708
0.565709
0.56571
0.565711
0.565712
0.565712
0.565713
0.565714
0.565715
0.565716
0.565716
0.565718
0.565719
0.56572
0.565721
0.565721
0.565722
0.565723
0.565724
0.565725
0.565725
0.565726
0.565727
0.565728
0.565729
0.565729
0.56573
0.565732
0.565733
0.565734
0.565734
0.565735
0.565736
0.565737
0.565738
0.565738
0.565739
0.56574
0.565742
0.565743
0.565743
0.565744
0.565745
0.565746
0.565747
0.565747
0.565748
0.565749
0.565751
0.565752
0.565752
0.565753
0.565754
0.565755
0.565756
0.565756
0.565757
0.565758
0.565759
0.565761
0.565761
0.565762
0.565763
0.565764
0.565765
0.565765
0.565766
0.565767
0.565769
0.56577
0.56577
0.565771
0.565772
0.565773
0.565774
0.565774
0.565775
0.565776
0.565778
0.565779
0.565779
0.56578
0.565781
0.565782
0.565783
0.565783
0.565785
0.565786
0.565787
0.565788
0.565788
0.565789
0.56579
0.565791
0.565793
0.565793
0.565794
0.565795
0.565796
0.565797
0.565797
0.565798
0.5658
0.565801
0.565802
0.565802
0.565803
0.565804
0.565805
0.565807
0.565807
0.565808
0.565809
0.56581
0.565811
0.565811
0.565812
0.565814
0.565815
0.565816
0.565816
0.565817
0.565818
0.565819
0.565821
0.565821
0.565822
0.565823
0.565824
0.565825
0.565825
0.565827
0.565828
0.565829
0.56583
0.56583
0.565831
0.565833
0.565834
0.565835
0.565835
0.565836
0.565837
0.565839
0.56584
0.56584
0.565841
0.565842
0.565843
0.565845
0.565845
0.565846
0.565847
0.565848
0.565849
0.565849
0.56585
0.565852
0.565853
0.565854
0.565854
0.565855
0.565857
0.565858
0.565859
0.565859
0.56586
0.565862
0.565863
0.565864
0.565864
0.565865
0.565867
0.565868
0.565869
0.565869
0.56587
0.565871
0.565873
0.565874
0.565874
0.565875
0.565876
0.565878
0.565879
0.565879
0.56588
0.565881
0.565883
0.565884
0.565884
0.565885
0.565886
0.565888
0.565889
0.565889
0.56589
0.565891
0.565893
0.565894
0.565894
0.565895
0.565896
0.565898
0.565899
0.565899
0.5659
0.565901
0.565903
0.565904
0.565904
0.565905
0.565906
0.565908
0.565909
0.565909
0.56591
0.565912
0.565913
0.565914
0.565914
0.565915
0.565917
0.565918
0.565919
0.565919
0.56592
0.565922
0.565923
0.565924
0.565924
0.565926
0.565927
0.565928
0.565929
0.565929
0.565931
0.565932
0.565933
0.565935
0.565935
0.565936
0.565937
0.565939
0.56594
0.56594
0.565941
0.565942
0.565944
0.565945
0.565945
0.565946
0.565948
0.565949
0.56595
0.56595
0.565952
0.565953
0.565954
0.565956
0.565956
0.565957
0.565958
0.565959
0.565961
0.565961
0.565962
0.565963
0.565965
0.565966
0.565966
0.565967
0.565969
0.56597
0.565971
0.565971
0.565973
0.565974
0.565975
0.565977
0.565977
0.565978
0.565979
0.565981
0.565982
0.565982
0.565983
0.565985
0.565986
0.565987
0.565987
0.565989
0.56599
0.565991
0.565993
0.565993
0.565994
0.565996
0.565997
0.565998
0.565998
0.566
0.566001
0.566002
0.566004
0.566004
0.566005
0.566006
0.566008
0.566009
0.566009
0.566011
0.566012
0.566013
0.566015
0.566015
0.566016
0.566017
0.566019
0.56602
0.56602
0.566021
0.566023
0.566024
0.566026
0.566026
0.566027
0.566028
0.56603
0.566031
0.566031
0.566033
0.566034
0.566035
0.566037
0.566037
0.566038
0.56604
0.566041
0.566042
0.566042
0.566044
0.566045
0.566046
0.566048
0.566048
0.566049
0.566051
0.566052
0.566054
0.566054
0.566055
0.566056
0.566058
0.566059
0.566059
0.566061
0.566062
0.566063
0.566065
0.566065
0.566066
0.566068
0.566069
0.566071
0.566071
0.566072
0.566073
0.566075
0.566076
0.566076
0.566078
0.566079
0.566081
0.566082
0.566082
0.566083
0.566085
0.566086
0.566088
0.566088
0.566089
0.566091
0.566092
0.566093
0.566093
0.566095
0.566096
0.566098
0.566099
0.566099
0.566101
0.566102
0.566104
0.566105
0.566105
0.566106
0.566108
0.566109
0.566111
0.566111
0.566112
0.566114
0.566115
0.566117
0.566117
0.566118
0.56612
0.566121
0.566123
0.566123
0.566124
0.566126
0.566127
0.566129
0.566129
0.56613
0.566132
0.566133
0.566135
0.566135
0.566136
0.566138
0.566139
0.566141
0.566141
0.566142
0.566143
0.566145
0.566146
0.566146
0.566148
0.566149
0.566151
0.566152
0.566152
0.566154
0.566155
0.566157
0.566159
0.566159
0.56616
0.566162
0.566163
0.566165
0.566165
0.566166
0.566168
0.566169
0.566171
0.566171
0.566172
0.566174
0.566175
0.566177
0.566177
0.566178
0.56618
0.566181
0.566183
0.566183
0.566184
0.566186
0.566187
0.566189
0.566189
0.566191
0.566192
0.566194
0.566195
0.566195
0.566197
0.566198
0.5662
0.566201
0.566201
0.566203
0.566204
0.566206
0.566208
0.566208
0.566209
0.566211
0.566212
0.566214
0.566214
0.566215
0.566217
0.566218
0.56622
0.56622
0.566222
0.566223
0.566225
0.566226
0.566226
0.566228
0.566229
0.566231
0.566233
0.566233
0.566234
0.566236
0.566237
0.566239
0.566239
0.56624
0.566242
0.566244
0.566245
0.566245
0.566247
0.566248
0.56625
0.566252
0.566252
0.566253
0.566255
0.566256
0.566258
0.566258
0.56626
0.566261
0.566263
0.566265
0.566265
0.566266
0.566268
0.566269
0.566271
0.566271
0.566273
0.566274
0.566276
0.566277
0.566277
0.566279
0.566281
0.566282
0.566284
0.566284
0.566286
0.566287
0.566289
0.56629
0.56629
0.566292
0.566294
0.566295
0.566297
0.566297
0.566299
0.5663
0.566302
0.566304
0.566304
0.566305
0.566307
0.566309
0.56631
0.56631
0.566312
0.566314
0.566315
0.566317
0.566317
0.566319
0.56632
0.566322
0.566324
0.566324
0.566325
0.566327
0.566329
0.56633
0.56633
0.566332
0.566334
0.566335
0.566337
0.566337
0.566339
0.56634
0.566342
0.566344
0.566344
0.566345
0.566347
0.566349
0.56635
0.56635
0.566352
0.566354
0.566355
0.566357
0.566357
0.566359
0.566361
0.566362
0.566364
0.566364
0.566366
0.566367
0.566369
0.566371
0.566371
0.566372
0.566374
0.566376
0.566378
0.566378
0.566379
0.566381
0.566383
0.566384
0.566384
0.566386
0.566388
0.56639
0.566391
0.566391
0.566393
0.566395
0.566397
0.566398
0.566398
0.5664
0.566402
0.566404
0.566405
0.566405
0.566407
0.566409
0.566411
0.566412
0.566412
0.566414
0.566416
0.566418
0.566419
0.566419
0.566421
0.566423
0.566425
0.566426
0.566426
0.566428
0.56643
0.566432
0.566434
0.566434
0.566435
0.566437
0.566439
0.566441
0.566441
0.566442
0.566444
0.566446
0.566448
0.566448
0.56645
0.566451
0.566453
0.566455
0.566455
0.566457
0.566459
0.56646
0.566462
0.566462
0.566464
0.566466
0.566468
0.566469
0.566469
0.566471
0.566473
0.566475
0.566477
0.566477
0.566478
0.56648
0.566482
0.566484
0.566484
0.566486
0.566487
0.566489
0.566491
0.566491
0.566493
0.566495
0.566497
0.566498
0.566498
0.5665
0.566502
0.566504
0.566506
0.566506
0.566508
0.566509
0.566511
0.566513
0.566513
0.566515
0.566517
0.566519
0.566521
0.566521
0.566522
0.566524
0.566526
0.566528
0.566528
0.56653
0.566532
0.566533
0.566535
0.566535
0.566537
0.566539
0.566541
0.566543
0.566543
0.566545
0.566547
0.566549
0.56655
0.56655
0.566552
0.566554
0.566556
0.566558
0.566558
0.56656
0.566562
0.566564
0.566566
0.566566
0.566568
0.566569
0.566571
0.566573
0.566573
0.566575
0.566577
0.566579
0.566581
0.566581
0.566583
0.566585
0.566587
0.566589
0.566589
0.566591
0.566592
0.566594
0.566596
0.566596
0.566598
0.5666
0.566602
0.566604
0.566604
0.566606
0.566608
0.56661
0.566612
0.566612
0.566614
0.566616
0.566618
0.56662
0.56662
0.566622
0.566623
0.566625
0.566627
0.566627
0.566629
0.566631
0.566633
0.566635
0.566635
0.566637
0.566639
0.566641
0.566643
0.566643
0.566645
0.566647
0.566649
0.566651
0.566651
0.566653
0.566655
0.566657
0.566659
0.566659
0.566661
0.566663
0.566665
0.566667
0.566667
0.566669
0.566671
0.566673
0.566675
0.566675
0.566677
0.566679
0.566681
0.566683
0.566683
0.566685
0.566687
0.566689
0.566691
0.566691
0.566693
0.566695
0.566697
0.566699
0.566699
0.566701
0.566703
0.566705
0.566707
0.566707
0.566709
0.566711
0.566713
0.566715
0.566715
0.566718
0.56672
0.566722
0.566724
0.566724
0.566726
0.566728
0.56673
0.566732
0.566732
0.566734
0.566736
0.566738
0.56674
0.56674
0.566742
0.566744
0.566746
0.566748
0.566748
0.566751
0.566753
0.566755
0.566757
0.566757
0.566759
0.566761
0.566763
0.566765
0.566765
0.566767
0.566769
0.566771
0.566774
0.566774
0.566776
0.566778
0.56678
0.566782
0.566782
0.566784
0.566786
0.566788
0.56679
0.56679
0.566793
0.566795
0.566797
0.566799
0.566799
0.566801
0.566803
0.566805
0.566807
0.566807
0.56681
0.566812
0.566814
0.566816
0.566816
0.566818
0.56682
0.566822
0.566825
0.566825
0.566827
0.566829
0.566831
0.566833
0.566833
0.566835
0.566837
0.56684
0.566842
0.566842
0.566844
0.566846
0.566848
0.56685
0.56685
0.566852
0.566855
0.566857
0.566859
0.566859
0.566861
0.566864
0.566866
0.566868
0.566868
0.56687
0.566872
0.566875
0.566877
0.566877
0.566879
0.566881
0.566883
0.566886
0.566886
0.566888
0.56689
0.566892
0.566895
0.566895
0.566897
0.566899
0.566901
0.566903
0.566903
0.566906
0.566908
0.56691
0.566912
0.566912
0.566915
0.566917
0.566919
0.566921
0.566921
0.566924
0.566926
0.566928
0.56693
0.56693
0.566933
0.566935
0.566937
0.566939
0.566939
0.566942
0.566944
0.566946
0.566948
0.566948
0.566951
0.566953
0.566955
0.566958
0.566958
0.56696
0.566962
0.566964
0.566967
0.566967
0.566969
0.566971
0.566974
0.566976
0.566976
0.566978
0.566981
0.566983
0.566985
0.566985
0.566987
0.56699
0.566992
0.566994
0.566994
0.566997
0.566999
0.567001
0.567004
0.567004
0.567006
0.567008
0.567011
0.567013
0.567013
0.567015
0.567017
0.56702
0.567022
0.567022
0.567024
0.567027
0.567029
0.567032
0.567032
0.567034
0.567036
0.567039
0.567041
0.567041
0.567044
0.567046
0.567048
0.567051
0.567051
0.567053
0.567055
0.567058
0.56706
0.56706
0.567063
0.567065
0.567067
0.56707
0.56707
0.567072
0.567075
0.567077
0.567079
0.567079
0.567082
0.567084
0.567087
0.567089
0.567089
0.567091
0.567094
0.567096
0.567099
0.567099
0.567101
0.567104
0.567106
0.567108
0.567108
0.567111
0.567113
0.567116
0.567118
0.567118
0.567121
0.567123
0.567126
0.567128
0.567128
0.56713
0.567133
0.567135
0.567138
0.567138
0.56714
0.567143
0.567145
0.567148
0.567148
0.56715
0.567153
0.567155
0.567158
0.567158
0.56716
0.567163
0.567165
0.567167
0.567167
0.56717
0.567172
0.567175
0.567177
0.567177
0.56718
0.567182
0.567185
0.567187
0.567187
0.56719
0.567192
0.567195
0.567197
0.567197
0.5672
0.567202
0.567205
0.567208
0.567208
0.56721
0.567213
0.567215
0.567218
0.567218
0.56722
0.567223
0.567225
0.567228
0.567228
0.567231
0.567233
0.567236
0.567238
0.567238
0.567241
0.567243
0.567246
0.567249
0.567249
0.567251
0.567254
0.567256
0.567259
0.567259
0.567261
0.567264
0.567267
0.567269
0.567269
0.567272
0.567274
0.567277
0.56728
0.56728
0.567282
0.567285
0.567287
0.56729
0.56729
0.567293
0.567295
0.567298
0.567301
0.567301
0.567303
0.567306
0.567308
0.567311
0.567311
0.567314
0.567316
0.567319
0.567322
0.567322
0.567324
0.567327
0.56733
0.567332
0.567332
0.567335
0.567338
0.56734
0.567343
0.567343
0.567346
0.567348
0.567351
0.567354
0.567354
0.567356
0.567359
0.567362
0.567364
0.567364
0.567367
0.56737
0.567372
0.567375
0.567375
0.567378
0.56738
0.567383
0.567386
0.567386
0.567389
0.567391
0.567394
0.567397
0.567397
0.5674
0.567402
0.567405
0.567408
0.567408
0.56741
0.567413
0.567416
0.567419
0.567419
0.567421
0.567424
0.567427
0.56743
0.56743
0.567433
0.567435
0.567438
0.567441
0.567441
0.567444
0.567446
0.567449
0.567452
0.567452
0.567455
0.567457
0.56746
0.567463
0.567463
0.567466
0.567469
0.567471
0.567474
0.567474
0.567477
0.56748
0.567483
0.567485
0.567485
0.567488
0.567491
0.567494
0.567497
0.567497
0.5675
0.567502
0.567505
0.567508
0.567508
0.567511
0.567514
0.567517
0.567519
0.567519
0.567522
0.567525
0.567528
0.567531
0.567531
0.567534
0.567537
0.567539
0.567542
0.567542
0.567545
0.567548
0.567551
0.567554
0.567554
0.567557
0.567559
0.567562
0.567565
0.567565
0.567568
0.567571
0.567574
0.567577
0.567577
0.56758
0.567583
0.567586
0.567589
0.567589
0.567592
0.567595
0.567597
0.5676
0.5676
0.567603
0.567606
0.567609
0.567612
0.567612
0.567615
0.567618
0.567621
0.567624
0.567624
0.567627
0.56763
0.567633
0.567636
0.567636
0.567639
0.567642
0.567645
0.567648
0.567648
0.567651
0.567654
0.567657
0.56766
0.56766
0.567663
0.567666
0.567669
0.567672
0.567672
0.567675
0.567678
0.567681
0.567684
0.567684
0.567687
0.56769
0.567693
0.567696
0.567696
0.567699
0.567702
0.567705
0.567708
0.567708
0.567711
0.567714
0.567717
0.56772
0.56772
0.567723
0.567726
0.567729
0.567732
0.567732
0.567736
0.567739
0.567742
0.567745
0.567745
0.567748
0.567751
0.567754
0.567757
0.567757
0.56776
0.567763
0.567766
0.567769
0.567769
0.567772
0.567776
0.567779
0.567782
0.567782
0.567785
0.567788
0.567791
0.567795
0.567795
0.567798
0.567801
0.567804
0.567807
0.567807
0.56781
0.567813
0.567817
0.56782
0.56782
0.567823
0.567826
0.567829
0.567832
0.567832
0.567836
0.567839
0.567842
0.567845
0.567845
0.567848
0.567852
0.567855
0.567858
0.567858
0.567861
0.567864
0.567868
0.567871
0.567871
0.567874
0.567877
0.567881
0.567884
0.567884
0.567887
0.56789
0.567893
0.567897
0.567897
0.5679
0.567903
0.567906
0.56791
0.56791
0.567913
0.567916
0.567919
0.567923
0.567923
0.567926
0.567929
0.567933
0.567936
0.567936
0.567939
0.567942
0.567946
0.567949
0.567949
0.567952
0.567955
0.567959
0.567962
0.567962
0.567965
0.567969
0.567972
0.567975
0.567975
0.567979
0.567982
0.567985
0.567989
0.567989
0.567992
0.567995
0.567999