<?xml version="1.0"?>
<VTKFile type="UnstructuredGrid" version="0.1" byte_order="LittleEndian">
<UnstructuredGrid>
<Piece NumberOfPoints="5000" NumberOfCells="4000">
<PointData Scalars="Reaction 0">
<DataArray type="Float32" Name="Reaction 0" format="ascii">
0.565144
0.565144
0.565144
0.565144
0.565144
0.565144
0.565144
0.565144
0.565144
0.565144
0.565144
0.565144
0.565144
0.565144
0.565144
0.565144
0.565144
0.565144
0.565144
0.565144
0.565144
0.565144
0.565144
0.565144
0.565144
0.565144
0.565144
0.565144
0.565144
0.565144
0.565144
0.565144
0.565144
0.565144
0.565144
0.565144
0.565144
0.565144
0.565144
0.565144
0.565144
0.565144
0.565144
0.565144
0.565144
0.565144
0.565144
0.565144
0.565144
0.565144
0.565144
0.565144
0.565144
0.565144
0.565144
0.565144
0.565144
0.565144
0.565144
0.565144
0.565144
0.565144
0.565144
0.565144
0.565144
0.565144
0.565144
0.565144
0.565145
0.565145
0.565145
0.565145
0.565145
0.565145
0.565145
0.565145
0.565145
0.565145
0.565145
0.565145
0.565145
0.565145
0.565145
0.565145
0.565145
0.565145
0.565145
0.565145
0.565145
0.565145
0.565145
0.565145
0.565145
0.565145
0.565145
0.565145
0.565145
0.565145
0.565145
0.565146
0.565146
0.565146
0.565146
0.565146
0.565146
0.565146
0.565146
0.565146
0.565146
0.565146
0.565146
0.565146
0.565146
0.565146
0.565146
0.565146
0.565146
0.565146
0.565146
0.565146
0.565146
0.565146
0.565147
0.565147
0.565147
0.565147
0.565147
0.565147
0.565147
0.565147
0.565147
0.565147
0.565147
0.565147
0.565147
0.565147
0.565147
0.565147
0.565147
0.565147
0.565147
0.565147
0.565148
0.565148
0.565148
0.565148
0.565148
0.565148
0.565148
0.565148
0.565148
0.565148
0.565148
0.565148
0.565148
0.565148
0.565148
0.565148
0.565148
0.565149
0.565149
0.565149
0.565149
0.565149
0.565149
0.565149
0.565149
0.565149
0.565149
0.565149
0.565149
0.565149
0.565149
0.565149
0.56515
0.56515
0.56515
0.56515
0.56515
0.56515
0.56515
0.56515
0.56515
0.56515
0.56515
0.56515
0.56515
0.56515
0.56515
0.565151
0.565151
0.565151
0.565151
0.565151
0.565151
0.565151
0.565151
0.565151
0.565151
0.565151
0.565151
0.565151
0.565152
0.565152
0.565152
0.565152
0.565152
0.565152
0.565152
0.565152
0.565152
0.565152
0.565152
0.565152
0.565153
0.565153
0.565153
0.565153
0.565153
0.565153
0.565153
0.565153
0.565153
0.565153
0.565153
0.565153
0.565153
0.565154
0.565154
0.565154
0.565154
0.565154
0.565154
0.565154
0.565154
0.565154
0.565154
0.565154
0.565155
0.565155
0.565155
0.565155
0.565155
0.565155
0.565155
0.565155
0.565155
0.565155
0.565156
0.565156
0.565156
0.565156
0.565156
0.565156
0.565156
0.565156
0.565156
0.565156
0.565157
0.565157
0.565157
0.565157
0.565157
0.565157
0.565157
0.565157
0.565157
0.565157
0.565158
0.565158
0.565158
0.565158
0.565158
0.565158
0.565158
0.565158
0.565158
0.565158
0.565159
0.565159
0.565159
0.565159
0.565159
0.565159
0.565159
0.565159
0.565159
0.56516
0.56516
0.56516
0.56516
0.56516
0.56516
0.56516
0.56516
0.56516
0.565161
0.565161
0.565161
0.565161
0.565161
0.565161
0.565161
0.565161
0.565162
0.565162
0.565162
0.565162
0.565162
0.565162
0.565162
0.565162
0.565162
0.565163
0.565163
0.565163
0.565163
0.565163
0.565163
0.565163
0.565163
0.565164
0.565164
0.565164
0.565164
0.565164
0.565164
0.565164
0.565164
0.565165
0.565165
0.565165
0.565165
0.565165
0.565165
0.565165
0.565165
0.565166
0.565166
0.565166
0.565166
0.565166
0.565166
0.565166
0.565167
0.565167
0.565167
0.565167
0.565167
0.565167
0.565167
0.565167
0.565168
0.565168
0.565168
0.565168
0.565168
0.565168
0.565168
0.565169
0.565169
0.565169
0.565169
0.565169
0.565169
0.565169
0.565169
0.56517
0.56517
0.56517
0.56517
0.56517
0.56517
0.565171
0.565171
0.565171
0.565171
0.565171
0.565171
0.565171
0.565171
0.565172
0.565172
0.565172
0.565172
0.565172
0.565172
0.565173
0.565173
0.565173
0.565173
0.565173
0.565173
0.565174
0.565174
0.565174
0.565174
0.565174
0.565174
0.565175
0.565175
0.565175
0.565175
0.565175
0.565175
0.565175
0.565175
0.565176
0.565176
0.565176
0.565176
0.565176
0.565176
0.565177
0.565177
0.565177
0.565177
0.565177
0.565177
0.565178
0.565178
0.565178
0.565178
0.565178
0.565179
0.565179
0.565179
0.565179
0.565179
0.565179
0.565179
0.56518
0.56518
0.56518
0.56518
0.56518
0.56518
0.565181
0.565181
0.565181
0.565181
0.565181
0.565181
0.565182
0.565182
0.565182
0.565182
0.565182
0.565183
0.565183
0.565183
0.565183
0.565183
0.565183
0.565184
0.565184
0.565184
0.565184
0.565184
0.565185
0.565185
0.565185
0.565185
0.565185
0.565185
0.565185
0.565186
0.565186
0.565186
0.565186
0.565186
0.565187
0.565187
0.565187
0.565187
0.565187
0.565188
0.565188
0.565188
0.565188
0.565188
0.565188
0.565189
0.565189
0.565189
0.565189
0.565189
0.56519
0.56519
0.56519
0.56519
0.56519
0.565191
0.565191
0.565191
0.565191
0.565191
0.565192
0.565192
0.565192
0.565192
0.565192
0.565193
0.565193
0.565193
0.565193
0.565193
0.565194
0.565194
0.565194
0.565194
0.565194
0.565195
0.565195
0.565195
0.565195
0.565195
0.565196
0.565196
0.565196
0.565196
0.565196
0.565197
0.565197
0.565197
0.565197
0.565197
0.565198
0.565198
0.565198
0.565198
0.565198
0.565199
0.565199
0.565199
0.565199
0.565199
0.5652
0.5652
0.5652
0.5652
0.5652
0.565201
0.565201
0.565201
0.565201
0.565201
0.565202
0.565202
0.565202
0.565202
0.565203
0.565203
0.565203
0.565203
0.565203
0.565204
0.565204
0.565204
0.565204
0.565204
0.565205
0.565205
0.565205
0.565206
0.565206
0.565206
0.565206
0.565206
0.565207
0.565207
0.565207
0.565207
0.565208
0.565208
0.565208
0.565208
0.565208
0.565209
0.565209
0.565209
0.565209
0.56521
0.56521
0.56521
0.56521
0.56521
0.565211
0.565211
0.565211
0.565211
0.565212
0.565212
0.565212
0.565212
0.565212
0.565213
0.565213
0.565213
0.565214
0.565214
0.565214
0.565214
0.565214
0.565215
0.565215
0.565215
0.565215
0.565216
0.565216
0.565216
0.565216
0.565217
0.565217
0.565217
0.565217
0.565217
0.565218
0.565218
0.565218
0.565218
0.565219
0.565219
0.565219
0.56522
0.56522
0.56522
0.56522
0.565221
0.565221
0.565221
0.565221
0.565221
0.565222
0.565222
0.565222
0.565222
0.565223
0.565223
0.565223
0.565223
0.565224
0.565224
0.565224
0.565225
0.565225
0.565225
0.565225
0.565226
0.565226
0.565226
0.565226
0.565227
0.565227
0.565227
0.565227
0.565228
0.565228
0.565228
0.565228
0.565228
0.565229
0.565229
0.565229
0.56523
0.56523
0.56523
0.56523
0.565231
0.565231
0.565231
0.565231
0.565232
0.565232
0.565232
0.565232
0.565233
0.565233
0.565233
0.565234
0.565234
0.565234
0.565234
0.565235
0.565235
0.565235
0.565235
0.565236
0.565236
0.565237
0.565237
0.565237
0.565237
0.565238
0.565238
0.565238
0.565238
0.565239
0.565239
0.565239
0.565239
0.56524
0.56524
0.56524
0.565241
0.565241
0.565241
0.565241
0.565242
0.565242
0.565242
0.565242
0.565243
0.565243
0.565243
0.565243
0.565244
0.565244
0.565245
0.565245
0.565245
0.565245
0.565246
0.565246
0.565246
0.565246
0.565247
0.565247
0.565247
0.565248
0.565248
0.565248
0.565249
0.565249
0.565249
0.565249
0.56525
0.56525
0.56525
0.565251
0.565251
0.565251
0.565251
0.565252
0.565252
0.565252
0.565253
0.565253
0.565253
0.565254
0.565254
0.565254
0.565254
0.565255
0.565255
0.565255
0.565256
0.565256
0.565256
0.565257
0.565257
0.565257
0.565257
0.565258
0.565258
0.565258
0.565259
0.565259
0.565259
0.56526
0.56526
0.56526
0.565261
0.565261
0.565261
0.565261
0.565262
0.565262
0.565262
0.565263
0.565263
0.565263
0.565264
0.565264
0.565264
0.565264
0.565265
0.565265
0.565266
0.565266
0.565266
0.565266
0.565267
0.565267
0.565267
0.565267
0.565268
0.565268
0.565269
0.565269
0.565269
0.565269
0.56527
0.56527
0.565271
0.565271
0.565271
0.565272
0.565272
0.565272
0.565272
0.565273
0.565273
0.565274
0.565274
0.565274
0.565274
0.565275
0.565275
0.565276
0.565276
0.565276
0.565276
0.565277
0.565277
0.565277
0.565278
0.565278
0.565279
0.565279
0.565279
0.565279
0.56528
0.56528
0.565281
0.565281
0.565281
0.565281
0.565282
0.565282
0.565282
0.565283
0.565283
0.565284
0.565284
0.565284
0.565284
0.565285
0.565285
0.565286
0.565286
0.565286
0.565287
0.565287
0.565287
0.565287
0.565288
0.565288
0.565289
0.565289
0.565289
0.56529
0.56529
0.56529
0.565291
0.565291
0.565291
0.565292
0.565292
0.565293
0.565293
0.565293
0.565294
0.565294
0.565294
0.565294
0.565295
0.565295
0.565296
0.565296
0.565296
0.565297
0.565297
0.565298
0.565298
0.565298
0.565298
0.565299
0.565299
0.5653
0.5653
0.5653
0.565301
0.565301
0.565302
0.565302
0.565302
0.565303
0.565303
0.565303
0.565303
0.565304
0.565304
0.565305
0.565305
0.565305
0.565306
0.565306
0.565307
0.565307
0.565307
0.565308
0.565308
0.565308
0.565309
0.565309
0.565309
0.56531
0.56531
0.565311
0.565311
0.565311
0.565312
0.565312
0.565313
0.565313
0.565313
0.565314
0.565314
0.565315
0.565315
0.565315
0.565316
0.565316
0.565316
0.565316
0.565317
0.565317
0.565318
0.565318
0.565318
0.565319
0.565319
0.56532
0.56532
0.56532
0.565321
0.565321
0.565322
0.565322
0.565322
0.565323
0.565323
0.565324
0.565324
0.565324
0.565325
0.565325
0.565326
0.565326
0.565326
0.565327
0.565327
0.565328
0.565328
0.565328
0.565329
0.565329
0.56533
0.56533
0.56533
0.565331
0.565331
0.565332
0.565332
0.565332
0.565333
0.565333
0.565334
0.565334
0.565334
0.565335
0.565335
0.565336
0.565336
0.565336
0.565337
0.565337
0.565338
0.565338
0.565338
0.565339
0.565339
0.56534
0.56534
0.56534
0.565341
0.565341
0.565342
0.565342
0.565342
0.565343
0.565343
0.565344
0.565344
0.565344
0.565345
0.565345
0.565346
0.565346
0.565346
0.565347
0.565347
0.565348
0.565348
0.565348
0.565349
0.565349
0.56535
0.56535
0.56535
0.565351
0.565352
0.565352
0.565353
0.565353
0.565353
0.565354
0.565354
0.565355
0.565355
0.565355
0.565356
0.565356
0.565357
0.565357
0.565357
0.565358
0.565358
0.565359
0.565359
0.565359
0.56536
0.565361
0.565361
0.565361
0.565362
0.565362
0.565363
0.565363
0.565363
0.565364
0.565364
0.565365
0.565365
0.565365
0.565366
0.565367
0.565367
0.565368
0.565368
0.565368
0.565369
0.565369
0.56537
0.56537
0.56537
0.565371
0.565371
0.565372
0.565372
0.565373
0.565373
0.565374
0.565374
0.565374
0.565375
0.565375
0.565376
0.565376
0.565376
0.565377
0.565378
0.565378
0.565379
0.565379
0.565379
0.56538
0.56538
0.565381
0.565381
0.565382
0.565382
0.565383
0.565383
0.565383
0.565384
0.565384
0.565385
0.565386
0.565386
0.565386
0.565387
0.565387
0.565388
0.565388
0.565388
0.565389
0.56539
0.56539
0.56539
0.565391
0.565391
0.565392
0.565392
0.565392
0.565393
0.565394
0.565394
0.565395
0.565395
0.565395
0.565396
0.565397
0.565397
0.565397
0.565398
0.565398
0.565399
0.5654
0.5654
0.5654
0.565401
0.565401
0.565402
0.565402
0.565402
0.565403
0.565404
0.565404
0.565404
0.565405
0.565405
0.565406
0.565407
0.565407
0.565407
0.565408
0.565408
0.565409
0.565409
0.56541
0.56541
0.565411
0.565411
0.565411
0.565412
0.565413
0.565413
0.565414
0.565414
0.565415
0.565415
0.565416
0.565416
0.565416
0.565417
0.565418
0.565418
0.565419
0.565419
0.565419
0.56542
0.565421
0.565421
0.565421
0.565422
0.565423
0.565423
0.565424
0.565424
0.565424
0.565425
0.565426
0.565426
0.565426
0.565427
0.565428
0.565428
0.565429
0.565429
0.565429
0.56543
0.565431
0.565431
0.565431
0.565432
0.565433
0.565433
0.565434
0.565434
0.565434
0.565435
0.565436
0.565436
0.565436
0.565437
0.565438
0.565438
0.565439
0.565439
0.56544
0.56544
0.565441
0.565441
0.565441
0.565442
0.565443
0.565443
0.565444
0.565444
0.565445
0.565445
0.565446
0.565447
0.565447
0.565447
0.565448
0.565449
0.565449
0.565449
0.56545
0.565451
0.565451
0.565452
0.565452
0.565453
0.565453
0.565454
0.565455
0.565455
0.565455
0.565456
0.565457
0.565457
0.565457
0.565458
0.565458
0.565459
0.56546
0.56546
0.56546
0.565461
0.565462
0.565463
0.565463
0.565463
0.565464
0.565465
0.565465
0.565465
0.565466
0.565467
0.565467
0.565468
0.565468
0.565469
0.565469
0.56547
0.565471
0.565471
0.565471
0.565472
0.565473
0.565473
0.565473
0.565474
0.565475
0.565475
0.565476
0.565476
0.565477
0.565477
0.565478
0.565479
0.565479
0.565479
0.56548
0.565481
0.565482
0.565482
0.565482
0.565483
0.565484
0.565484
0.565484
0.565485
0.565486
0.565486
0.565487
0.565487
0.565488
0.565489
0.565489
0.56549
0.56549
0.565491
0.565491
0.565492
0.565493
0.565493
0.565493
0.565494
0.565495
0.565496
0.565496
0.565496
0.565497
0.565498
0.565498
0.565498
0.565499
0.5655
0.565501
0.565501
0.565501
0.565502
0.565503
0.565503
0.565504
0.565504
0.565505
0.565506
0.565506
0.565507
0.565507
0.565508
0.565508
0.565509
0.56551
0.56551
0.565511
0.565511
0.565512
0.565513
0.565513
0.565514
0.565514
0.565515
0.565516
0.565516
0.565516
0.565517
0.565518
0.565519
0.565519
0.565519
0.56552
0.565521
0.565522
0.565522
0.565522
0.565523
0.565524
0.565525
0.565525
0.565525
0.565526
0.565527
0.565528
0.565528
0.565528
0.565529
0.56553
0.565531
0.565531
0.565531
0.565532
0.565533
0.565534
0.565534
0.565534
0.565535
0.565536
0.565537
0.565537
0.565537
0.565538
0.565539
0.56554
0.56554
0.56554
0.565541
0.565542
0.565543
0.565543
0.565543
0.565544
0.565545
0.565546
0.565546
0.565547
0.565547
0.565548
0.565549
0.565549
0.56555
0.56555
0.565551
0.565552
0.565552
0.565553
0.565553
0.565554
0.565555
0.565555
0.565556
0.565557
0.565557
0.565558
0.565558
0.565559
0.56556
0.56556
0.565561
0.565561
0.565562
0.565563
0.565564
0.565564
0.565564
0.565565
0.565566
0.565567
0.565568
0.565568
0.565568
0.565569
0.56557
0.565571
0.565571
0.565572
0.565572
0.565573
0.565574
0.565574
0.565575
0.565576
0.565576
0.565577
0.565577
0.565578
0.565579
0.56558
0.56558
0.56558
0.565581
0.565582
0.565583
0.565584
0.565584
0.565584
0.565585
0.565586
0.565587
0.565587
0.565587
0.565588
0.565589
0.56559
0.56559
0.565591
0.565592
0.565592
0.565593
0.565593
0.565594
0.565595
0.565596
0.565597
0.565597
0.565597
0.565598
0.565599
0.5656
0.5656
0.565601
0.565602
0.565602
0.565603
0.565603
0.565604
0.565605
0.565606
0.565607
0.565607
0.565607
0.565608
0.565609
0.56561
0.56561
0.565611
0.565612
0.565612
0.565613
0.565613
0.565614
0.565615
0.565616
0.565617
0.565617
0.565617
0.565618
0.565619
0.56562
0.56562
0.565621
0.565622
0.565623
0.565623
0.565623
0.565624
0.565625
0.565626
0.565627
0.565627
0.565628
0.565629
0.565629
0.56563
0.56563
0.565631
0.565632
0.565633
0.565634
0.565634
0.565635
0.565635
0.565636
0.565637
0.565637
0.565638
0.565639
0.56564
0.565641
0.565641
0.565642
0.565642
0.565643
0.565644
0.565644
0.565645
0.565646
0.565647
0.565648
0.565648
0.565649
0.565649
0.56565
0.565651
0.565651
0.565652
0.565653
0.565654
0.565655
0.565655
0.565656
0.565657
0.565657
0.565658
0.565658
0.565659
0.56566
0.565661
0.565662
0.565662
0.565663
0.565664
0.565665
0.565665
0.565665
0.565666
0.565667
0.565668
0.565669
0.565669
0.56567
0.565671
0.565672
0.565673
0.565673
0.565674
0.565674
0.565675
0.565676
0.565676
0.565677
0.565678
0.565679
0.56568
0.56568
0.565681
0.565682
0.565683
0.565684
0.565684
0.565685
0.565685
0.565686
0.565687
0.565687
0.565688
0.565689
0.56569
0.565691
0.565691
0.565692
0.565693
0.565694
0.565695
0.565695
0.565696
0.565697
0.565697
0.565698
0.565698
0.565699
0.5657
0.565701
0.565702
0.565702
0.565703
0.565704
0.565705
0.565706
0.565706
0.565707
0.565708
0.565709
0.56571
0.56571
0.565711
0.565712
0.565712
0.565713
0.565713
0.565714
0.565715
0.565716
0.565717
0.565717
0.565718
0.565719
0.56572
0.565721
0.565721
0.565722
0.565723
0.565724
0.565725
0.565725
0.565726
0.565727
0.565728
0.565729
0.565729
0.56573
0.565731
0.565732
0.565733
0.565733
0.565734
0.565735
0.565736
0.565737
0.565737
0.565738
0.565738
0.565739
0.56574
0.56574
0.565741
0.565742
0.565743
0.565744
0.565744
0.565745
0.565746
0.565747
0.565748
0.565748
0.565749
0.56575
0.565751
0.565752
0.565752
0.565753
0.565754
0.565755
0.565756
0.565756
0.565757
0.565758
0.565759
0.56576
0.56576
0.565761
0.565762
0.565763
0.565764
0.565764
0.565765
0.565766
0.565767
0.565768
0.565768
0.565769
0.56577
0.565771
0.565772
0.565772
0.565773
0.565774
0.565775
0.565776
0.565776
0.565777
0.565778
0.565779
0.56578
0.56578
0.565781
0.565782
0.565783
0.565784
0.565784
0.565785
0.565786
0.565787
0.565789
0.565789
0.56579
0.565791
0.565792
0.565793
0.565793
0.565794
0.565795
0.565796
0.565797
0.565797
0.565798
0.565799
0.5658
0.565801
0.565801
0.565802
0.565803
0.565804
0.565805
0.565805
0.565806
0.565807
0.565808
0.565809
0.565809
0.56581
0.565811
0.565812
0.565813
0.565813
0.565815
0.565816
0.565817
0.565818
0.565818
0.565819
0.56582
0.565821
0.565822
0.565822
0.565823
0.565824
0.565825
0.565826
0.565826
0.565827
0.565828
0.565829
0.56583
0.56583
0.565831
0.565832
0.565834
0.565835
0.565835
0.565836
0.565837
0.565838
0.565839
0.565839
0.56584
0.565841
0.565842
0.565843
0.565843
0.565844
0.565846
0.565847
0.565848
0.565848
0.565849
0.56585
0.565851
0.565852
0.565852
0.565853
0.565854
0.565855
0.565856
0.565856
0.565858
0.565859
0.56586
0.565861
0.565861
0.565862
0.565863
0.565864
0.565865
0.565865
0.565866
0.565867
0.565869
0.56587
0.56587
0.565871
0.565872
0.565873
0.565874
0.565874
0.565875
0.565876
0.565877
0.565879
0.565879
0.56588
0.565881
0.565882
0.565883
0.565883
0.565884
0.565885
0.565886
0.565888
0.565888
0.565889
0.56589
0.565891
0.565892
0.565892
0.565893
0.565894
0.565895
0.565897
0.565897
0.565898
0.565899
0.5659
0.565901
0.565901
0.565902
0.565903
0.565905
0.565906
0.565906
0.565907
0.565908
0.565909
0.56591
0.56591
0.565911
0.565913
0.565914
0.565915
0.565915
0.565916
0.565917
0.565918
0.56592
0.56592
0.565921
0.565922
0.565923
0.565924
0.565924
0.565925
0.565927
0.565928
0.565929
0.565929
0.56593
0.565931
0.565932
0.565934
0.565934
0.565935
0.565936
0.565937
0.565938
0.565938
0.565939
0.565941
0.565942
0.565943
0.565943
0.565944
0.565945
0.565946
0.565948
0.565948
0.565949
0.56595
0.565951
0.565952
0.565952
0.565953
0.565955
0.565956
0.565957
0.565957
0.565958
0.56596
0.565961
0.565962
0.565962
0.565963
0.565964
0.565966
0.565967
0.565967
0.565968
0.565969
0.56597
0.565972
0.565972
0.565973
0.565974
0.565975
0.565977
0.565977
0.565978
0.565979
0.56598
0.565981
0.565981
0.565983
0.565984
0.565985
0.565986
0.565986
0.565988
0.565989
0.56599
0.565991
0.565991
0.565992
0.565994
0.565995
0.565996
0.565996
0.565997
0.565999
0.566
0.566001
0.566001
0.566002
0.566004
0.566005
0.566006
0.566006
0.566007
0.566009
0.56601
0.566011
0.566011
0.566012
0.566014
0.566015
0.566016
0.566016
0.566017
0.566019
0.56602
0.566021
0.566021
0.566022
0.566024
0.566025
0.566026
0.566026
0.566027
0.566029
0.56603
0.566031
0.566031
0.566032
0.566034
0.566035
0.566036
0.566036
0.566038
0.566039
0.56604
0.566041
0.566041
0.566043
0.566044
0.566045
0.566047
0.566047
0.566048
0.566049
0.56605
0.566052
0.566052
0.566053
0.566054
0.566056
0.566057
0.566057
0.566058
0.566059
0.566061
0.566062
0.566062
0.566063
0.566065
0.566066
0.566067
0.566067
0.566069
0.56607
0.566071
0.566072
0.566072
0.566074
0.566075
0.566076
0.566078
0.566078
0.566079
0.56608
0.566082
0.566083
0.566083
0.566084
0.566085
0.566087
0.566088
0.566088
0.566089
0.566091
0.566092
0.566094
0.566094
0.566095
0.566096
0.566098
0.566099
0.566099
0.5661
0.566102
0.566103
0.566104
0.566104
0.566106
0.566107
0.566108
0.56611
0.56611
0.566111
0.566112
0.566114
0.566115
0.566115
0.566116
0.566118
0.566119
0.566121
0.566121
0.566122
0.566123
0.566125
0.566126
0.566126
0.566127
0.566129
0.56613
0.566131
0.566131
0.566133
0.566134
0.566136
0.566137
0.566137
0.566138
0.56614
0.566141
0.566142
0.566142
0.566144
0.566145
0.566147
0.566148
0.566148
0.566149
0.566151
0.566152
0.566153
0.566153
0.566155
0.566156
0.566158
0.566159
0.566159
0.56616
0.566162
0.566163
0.566165
0.566165
0.566166
0.566167
0.566169
0.56617
0.56617
0.566172
0.566173
0.566174
0.566176
0.566176
0.566177
0.566179
0.56618
0.566182
0.566182
0.566183
0.566184
0.566186
0.566187
0.566187
0.566189
0.56619
0.566192
0.566193
0.566193
0.566194
0.566196
0.566197
0.566199
0.566199
0.5662
0.566202
0.566203
0.566204
0.566204
0.566206
0.566207
0.566209
0.56621
0.56621
0.566212
0.566213
0.566214
0.566216
0.566216
0.566217
0.566219
0.56622
0.566222
0.566222
0.566223
0.566224
0.566226
0.566227
0.566227
0.566229
0.56623
0.566232
0.566233
0.566233
0.566235
0.566236
0.566238
0.566239
0.566239
0.566241
0.566242
0.566244
0.566245
0.566245
0.566247
0.566248
0.56625
0.566251
0.566251
0.566253
0.566254
0.566256
0.566257
0.566257
0.566259
0.56626
0.566262
0.566263
0.566263
0.566265
0.566266
0.566268
0.566269
0.566269
0.566271
0.566272
0.566274
0.566275
0.566275
0.566277
0.566278
0.56628
0.566281
0.566281
0.566283
0.566284
0.566286
0.566287
0.566287
0.566289
0.56629
0.566292
0.566293
0.566293
0.566295
0.566296
0.566298
0.566299
0.566299
0.566301
0.566303
0.566304
0.566306
0.566306
0.566307
0.566309
0.56631
0.566312
0.566312
0.566313
0.566315
0.566316
0.566318
0.566318
0.56632
0.566321
0.566323
0.566324
0.566324
0.566326
0.566327
0.566329
0.56633
0.56633
0.566332
0.566334
0.566335
0.566337
0.566337
0.566338
0.56634
0.566341
0.566343
0.566343
0.566345
0.566346
0.566348
0.566349
0.566349
0.566351
0.566352
0.566354
0.566356
0.566356
0.566357
0.566359
0.56636
0.566362
0.566362
0.566363
0.566365
0.566367
0.566368
0.566368
0.56637
0.566371
0.566373
0.566375
0.566375
0.566376
0.566378
0.56638
0.566381
0.566381
0.566383
0.566384
0.566386
0.566388
0.566388
0.566389
0.566391
0.566393
0.566394
0.566394
0.566396
0.566397
0.566399
0.566401
0.566401
0.566402
0.566404
0.566406
0.566407
0.566407
0.566409
0.56641
0.566412
0.566414
0.566414
0.566415
0.566417
0.566419
0.56642
0.56642
0.566422
0.566424
0.566425
0.566427
0.566427
0.566429
0.56643
0.566432
0.566434
0.566434
0.566435
0.566437
0.566439
0.56644
0.56644
0.566442
0.566444
0.566445
0.566447
0.566447
0.566449
0.56645
0.566452
0.566454
0.566454
0.566455
0.566457
0.566459
0.56646
0.56646
0.566462
0.566464
0.566465
0.566467
0.566467
0.566469
0.566471
0.566472
0.566474
0.566474
0.566476
0.566477
0.566479
0.566481
0.566481
0.566483
0.566484
0.566486
0.566488
0.566488
0.566489
0.566491
0.566493
0.566495
0.566495
0.566496
0.566498
0.5665
0.566501
0.566501
0.566503
0.566505
0.566507
0.566508
0.566508
0.56651
0.566512
0.566513
0.566515
0.566515
0.566517
0.566519
0.56652
0.566522
0.566522
0.566524
0.566526
0.566527
0.566529
0.566529
0.566531
0.566533
0.566535
0.566536
0.566536
0.566538
0.56654
0.566542
0.566543
0.566543
0.566545
0.566547
0.566549
0.56655
0.56655
0.566552
0.566554
0.566556
0.566558
0.566558
0.566559
0.566561
0.566563
0.566565
0.566565
0.566567
0.566568
0.56657
0.566572
0.566572
0.566574
0.566576
0.566577
0.566579
0.566579
0.566581
0.566583
0.566585
0.566586
0.566586
0.566588
0.56659
0.566592
0.566594
0.566594
0.566595
0.566597
0.566599
0.566601
0.566601
0.566603
0.566605
0.566606
0.566608
0.566608
0.56661
0.566612
0.566614
0.566616
0.566616
0.566617
0.566619
0.566621
0.566623
0.566623
0.566625
0.566627
0.566629
0.56663
0.56663
0.566632
0.566634
0.566636
0.566638
0.566638
0.56664
0.566642
0.566643
0.566645
0.566645
0.566647
0.566649
0.566651
0.566653
0.566653
0.566655
0.566656
0.566658
0.56666
0.56666
0.566662
0.566664
0.566666
0.566668
0.566668
0.566669
0.566671
0.566673
0.566675
0.566675
0.566677
0.566679
0.566681
0.566683
0.566683
0.566685
0.566687
0.566689
0.566691
0.566691
0.566693
0.566694
0.566696
0.566698
0.566698
0.5667
0.566702
0.566704
0.566706
0.566706
0.566708
0.56671
0.566712
0.566714
0.566714
0.566716
0.566718
0.56672
0.566721
0.566721
0.566723
0.566725
0.566727
0.566729
0.566729
0.566731
0.566733
0.566735
0.566737
0.566737
0.566739
0.566741
0.566743
0.566745
0.566745
0.566747
0.566749
0.566751
0.566753
0.566753
0.566755
0.566757
0.566759
0.566761
0.566761
0.566763
0.566765
0.566767
0.566769
0.566769
0.566771
0.566773
0.566775
0.566777
0.566777
0.566779
0.566781
0.566783
0.566785
0.566785
0.566787
0.566789
0.566791
0.566793
0.566793
0.566795
0.566797
0.566799
0.566801
0.566801
0.566803
0.566805
0.566807
0.566809
0.566809
0.566811
0.566813
0.566815
0.566817
0.566817
0.566819
0.566821
0.566823
0.566825
0.566825
0.566827
0.566829
0.566831
0.566833
0.566833
0.566835
0.566837
0.566839
0.566841
0.566841
0.566844
0.566846
0.566848
0.56685
0.56685
0.566852
0.566854
0.566856
0.566858
0.566858
0.56686
0.566862
0.566864
0.566866
0.566866
0.566869
0.566871
0.566873
0.566875
0.566875
0.566877
0.566879
0.566881
0.566883
0.566883
0.566885
0.566887
0.56689
0.566892
0.566892
0.566894
0.566896
0.566898
0.5669
0.5669
0.566902
0.566904
0.566907
0.566909
0.566909
0.566911
0.566913
0.566915
0.566917
0.566917
0.566919
0.566921
0.566924
0.566926
0.566926
0.566928
0.56693
0.566932
0.566934
0.566934
0.566936
0.566939
0.566941
0.566943
0.566943
0.566945
0.566947
0.566949
0.566952
0.566952
0.566954
0.566956
0.566958
0.56696
0.56696
0.566962
0.566965
0.566967
0.566969
0.566969
0.566971
0.566973
0.566976
0.566978
0.566978
0.56698
0.566982
0.566984
0.566987
0.566987
0.566989
0.566991
0.566993
0.566995
0.566995
0.566998
0.567
0.567002
0.567004
0.567004
0.567006
0.567009
0.567011
0.567013
0.567013
0.567015
0.567018
0.56702
0.567022
0.567022
0.567024
0.567027
0.567029
0.567031
0.567031
0.567033
0.567036
0.567038
0.56704
0.56704
0.567042
0.567045
0.567047
0.567049
0.567049
0.567051
0.567054
0.567056
0.567058
0.567058
0.567061
0.567063
0.567065
0.567067
0.567067
0.56707
0.567072
0.567074
0.567077
0.567077
0.567079
0.567081
0.567083
0.567086
0.567086
0.567088
0.56709
0.567093
0.567095
0.567095
0.567097
0.5671
0.567102
0.567104
0.567104
0.567107
0.567109
0.567111
0.567114
0.567114
0.567116
0.567118
0.567121
0.567123
0.567123
0.567125
0.567128
0.56713
0.567132
0.567132
0.567135
0.567137
0.567139
0.567142
0.567142
0.567144
0.567146
0.567149
0.567151
0.567151
0.567154
0.567156
0.567158
0.567161
0.567161
0.567163
0.567165
0.567168
0.56717
0.56717
0.567172
0.567175
0.567177
0.56718
0.56718
0.567182
0.567184
0.567187
0.567189
0.567189
0.567192
0.567194
0.567197
0.567199
0.567199
0.567201
0.567204
0.567206
0.567209
0.567209
0.567211
0.567214
0.567216
0.567218
0.567218
0.567221
0.567223
0.567226
0.567228
0.567228
0.567231
0.567233
0.567236
0.567238
0.567238
0.567241
0.567243
0.567245
0.567248
0.567248
0.56725
0.567253
0.567255
0.567258
0.567258
0.56726
0.567263
0.567265
0.567268
0.567268
0.56727
0.567273
0.567275
0.567278
0.567278
0.56728
0.567283
0.567285
0.567288
0.567288
0.56729
0.567293
0.567295
0.567298
0.567298
0.5673
0.567303
0.567305
0.567308
0.567308
0.56731
0.567313
0.567315
0.567318
0.567318
0.567321
0.567323
0.567326
0.567328
0.567328
0.567331
0.567333
0.567336
0.567338
0.567338
0.567341
0.567343
0.567346
0.567349
0.567349
0.567351
0.567354
0.567356
0.567359
0.567359
0.567361
0.567364
0.567366
0.567369
0.567369
0.567372
0.567374
0.567377
0.567379
0.567379
0.567382
0.567385
0.567387
0.56739
0.56739
0.567393
0.567395
0.567398
0.5674
0.5674
0.567403
0.567406
0.567408
0.567411
0.567411
0.567414
0.567416
0.567419
0.567422
0.567422
0.567424
0.567427
0.56743
0.567432
0.567432
0.567435
0.567437
0.56744
0.567443
0.567443
0.567445
0.567448
0.567451
0.567453
0.567453
0.567456
0.567459
0.567462
0.567464
0.567464
0.567467
0.56747
0.567472
0.567475
0.567475
0.567478
0.56748
0.567483
0.567486
0.567486
0.567488
0.567491
0.567494
0.567497
0.567497
0.567499
0.567502
0.567505
0.567508
0.567508
0.56751
0.567513
0.567516
0.567518
0.567518
0.567521
0.567524
0.567527
0.567529
0.567529
0.567532
0.567535
0.567538
0.56754
0.56754
0.567543
0.567546
0.567549
0.567551
0.567551
0.567554
0.567557
0.56756
0.567562
0.567562
0.567565
0.567568
0.567571
0.567574
0.567574
0.567577
0.567579
0.567582
0.567585
0.567585
0.567588
0.567591
0.567594
0.567596
0.567596
0.567599
0.567602
0.567605
0.567608
0.567608
0.567611
0.567613
0.567616
0.567619
0.567619
0.567622
0.567625
0.567628
0.56763
0.56763
0.567633
0.567636
0.567639
0.567642
0.567642
0.567645
0.567648
0.567651
0.567653
0.567653
0.567656
0.567659
0.567662
0.567665
0.567665
0.567668
0.567671
0.567674
0.567677
0.567677
0.567679
0.567682
0.567685
0.567688
0.567688
0.567691
0.567694
0.567697
0.5677
0.5677
0.567703
0.567706
0.567709
0.567712
0.567712
0.567715
0.567718
0.56772
0.567723
0.567723
0.567726
0.567729
0.567732
0.567735
0.567735
0.567738
0.567741
0.567744
0.567747
0.567747
0.56775
0.567753
0.567756
0.567759
0.567759
0.567762
0.567765
0.567768
0.567771
0.567771
0.567774
0.567777
0.56778
0.567783
0.567783
0.567786
0.567789
0.567792
0.567795
0.567795
0.567798
0.567801
0.567804
0.567807
0.567807
0.56781
0.567813
0.567817
0.56782
0.56782
0.567823
0.567826
0.567829
0.567832
0.567832
0.567835
0.567838
0.567841
0.567844
0.567844
0.567847
0.56785
0.567853
0.567856
0.567856
0.56786
0.567863
0.567866
0.567869
0.567869
0.567872
0.567875
0.567878
0.567881
0.567881
0.567884
0.567888
0.567891
0.567894
0.567894
0.567897
0.5679
0.567903
0.567906
0.567906
0.56791
0.567913
0.567916
0.567919
0.567919
0.567922
0.567925
0.567928
0.567932
0.567932
0.567935
0.567938
0.567941
0.567944
0.567944
0.567947
0.567951
0.567954
0.567957
0.567957
0.56796
0.567963
0.567966
0.56797
0.56797
0.567973
0.567976
0.567979
0.567983
0.567983
0.567986
0.567989
0.567992
0.567996
0.567996
0.567999
0.568002
0.568005
0.568009
0.568009
0.568012
0.568015
0.568019
0.568022
0.568022
0.568025
0.568028
0.568032
0.568035
0.568035
0.568038
0.568042
0.568045
0.568048
0.568048
0.568051
0.568055
0.568058
0.568061
0.568061
0.568065
0.568068
0.568071
0.568075
0.568075
0.568078
0.568081
0.568085
0.568088
0.568088
0.568091
0.568095
0.568098
0.568101
0.568101
0.568105
0.568108
0.568111
0.568115
0.568115
0.568118
0.568121
0.568125
0.568128
0.568128
0.568132
0.568135
0.568138
0.568142
0.568142
0.568145
0.568149
0.568152
0.568155
0.568155
0.568159
0.568162
0.568166
0.568169
0.568169
0.568172
0.568176
0.568179
0.568183
0.568183
0.568186
0.568189
0.568193
0.568196
0.568196
0.5682
0.568203
0.568207
0.56821
0.56821
0.568214
0.568217
0.568221
0.568224
0.568224
0.568228
0.568231
0.568235
0.568238
0.568238
0.568242
0.568245
0.568249
0.568252
0.568252
0.568256
0.568259
0.568263
0.568266
0.568266
0.56827
0.568274
0.568277
0.568281
0.568281
0.568284
0.568288
0.568291
0.568295
0.568295
0.568298
0.568302
0.568306
0.568309
0.568309
0.568313
0.568316
0.56832
0.568323
0.568323
0.568327
0.568331
0.568334
0.568338
0.568338
0.568341
0.568345
0.568349
0.568352
0.568352
0.568356
0.56836
0.568363
0.568367
0.568367
0.56837
0.568374
0.568378
0.568381
0.568381
0.568385
0.568389
0.568392
0.568396
0.568396
0.5684
0.568403
0.568407
0.568411
0.568411
0.568414
0.568418
0.568422
0.568425
0.568425
0.568429
0.568433
0.568437
0.56844
0.56844
0.568444
0.568448