<?xml version="1.0"?>
<VTKFile type="UnstructuredGrid" version="0.1" byte_order="LittleEndian">
<UnstructuredGrid>
<Piece NumberOfPoints="5000" NumberOfCells="4000">
<PointData Scalars="Reaction 0">
<DataArray type="Float32" Name="Reaction 0" format="ascii">
0.427941
0.427941
0.427941
0.427941
0.427941
0.427941
0.427941
0.427942
0.427942
0.427942
0.427942
0.427942
0.427943
0.427943
0.427943
0.427943
0.427944
0.427944
0.427944
0.427945
0.427945
0.427945
0.427946
0.427947
0.427947
0.427947
0.427948
0.427948
0.427949
0.42795
0.42795
0.427951
0.427951
0.427952
0.427953
0.427953
0.427954
0.427955
0.427956
0.427957
0.427957
0.427958
0.427959
0.42796
0.427961
0.427961
0.427962
0.427963
0.427964
0.427966
0.427966
0.427967
0.427968
0.427969
0.427971
0.427971
0.427972
0.427973
0.427975
0.427976
0.427976
0.427978
0.427979
0.427981
0.427982
0.427982
0.427984
0.427986
0.427987
0.427989
0.427989
0.427991
0.427993
0.427994
0.427996
0.427996
0.427998
0.428
0.428002
0.428004
0.428004
0.428006
0.428008
0.42801
0.428012
0.428012
0.428014
0.428016
0.428018
0.42802
0.42802
0.428023
0.428025
0.428027
0.428029
0.428029
0.428032
0.428034
0.428037
0.428039
0.428039
0.428042
0.428044
0.428047
0.428049
0.428049
0.428052
0.428054
0.428057
0.42806
0.42806
0.428062
0.428065
0.428068
0.428071
0.428071
0.428074
0.428076
0.428079
0.428082
0.428082
0.428085
0.428088
0.428091
0.428094
0.428094
0.428097
0.4281
0.428104
0.428107
0.428107
0.42811
0.428113
0.428116
0.42812
0.42812
0.428123
0.428126
0.42813
0.428133
0.428133
0.428137
0.42814
0.428144
0.428147
0.428147
0.428151
0.428154
0.428158
0.428162
0.428162
0.428165
0.428169
0.428173
0.428177
0.428177
0.42818
0.428184
0.428188
0.428192
0.428192
0.428196
0.4282
0.428204
0.428208
0.428208
0.428212
0.428216
0.42822
0.428224
0.428224
0.428229
0.428233
0.428237
0.428241
0.428241
0.428246
0.42825
0.428254
0.428259
0.428259
0.428263
0.428268
0.428272
0.428277
0.428277
0.428281
0.428286
0.42829
0.428295
0.428295
0.4283
0.428304
0.428309
0.428314
0.428314
0.428319
0.428324
0.428328
0.428333
0.428333
0.428338
0.428343
0.428348
0.428353
0.428353
0.428358
0.428363
0.428368
0.428373
0.428373
0.428379
0.428384
0.428389
0.428394
0.428394
0.4284
0.428405
0.42841
0.428416
0.428416
0.428421
0.428427
0.428432
0.428437
0.428437
0.428443
0.428449
0.428454
0.42846
0.42846
0.428465
0.428471
0.428477
0.428483
0.428483
0.428488
0.428494
0.4285
0.428506
0.428506
0.428512
0.428518
0.428524
0.42853
0.42853
0.428536
0.428542
0.428548
0.428554
0.428554
0.42856
0.428566
0.428573
0.428579
0.428579
0.428585
0.428591
0.428598
0.428604
0.428604
0.42861
0.428617
0.428623
0.42863
0.42863
0.428636
0.428643
0.428649
0.428656
0.428656
0.428663
0.428669
0.428676
0.428683
0.428683
0.428689
0.428696
0.428703
0.42871
0.42871
0.428717
0.428724
0.428731
0.428738
0.428738
0.428745
0.428752
0.428759
0.428766
0.428766
0.428773
0.42878
0.428787
0.428795
0.428795
0.428802
0.428809
0.428816
0.428824
0.428824
0.428831
0.428839
0.428846
0.428853
0.428853
0.428861
0.428868
0.428876
0.428884
0.428884
0.428891
0.428899
0.428907
0.428914
0.428914
0.428922
0.42893
0.428938
0.428945
0.428945
0.428953
0.428961
0.428969
0.428977
0.428977
0.428985
0.428993
0.429001
0.429009
0.429009
0.429017
0.429025
0.429034
0.429042
0.429042
0.42905
0.429058
0.429067
0.429075
0.429075
0.429083
0.429092
0.4291
0.429109
0.429109
0.429117
0.429126
0.429134
0.429143
0.429143
0.429151
0.42916
0.429169
0.429177
0.429177
0.429186
0.429195
0.429204
0.429212
0.429212
0.429221
0.42923
0.429239
0.429248
0.429248
0.429257
0.429266
0.429275
0.429284
0.429284
0.429293
0.429302
0.429311
0.429321
0.429321
0.42933
0.429339
0.429348
0.429358
0.429358
0.429367
0.429376
0.429386
0.429395
0.429395
0.429405
0.429414
0.429424
0.429433
0.429433
0.429443
0.429452
0.429462
0.429472
0.429472
0.429482
0.429491
0.429501
0.429511
0.429511
0.429521
0.429531
0.42954
0.42955
0.42955
0.42956
0.42957
0.42958
0.42959
0.42959
0.4296
0.429611
0.429621
0.429631
0.429631
0.429641
0.429651
0.429662
0.429672
0.429672
0.429682
0.429693
0.429703
0.429713
0.429713
0.429724
0.429734
0.429745
0.429755
0.429755
0.429766
0.429776
0.429787
0.429798
0.429798
0.429808
0.429819
0.42983
0.429841
0.429841
0.429852
0.429862
0.429873
0.429884
0.429884
0.429895
0.429906
0.429917
0.429928
0.429928
0.429939
0.42995
0.429961
0.429973
0.429973
0.429984
0.429995
0.430006
0.430018
0.430018
0.430029
0.43004
0.430052
0.430063
0.430063
0.430074
0.430086
0.430097
0.430109
0.430109
0.43012
0.430132
0.430144
0.430155
0.430155
0.430167
0.430179
0.43019
0.430202
0.430202
0.430214
0.430226
0.430238
0.43025
0.43025
0.430261
0.430273
0.430285
0.430297
0.430297
0.43031
0.430322
0.430334
0.430346
0.430346
0.430358
0.43037
0.430382
0.430395
0.430395
0.430407
0.430419
0.430432
0.430444
0.430444
0.430457
0.430469
0.430481
0.430494
0.430494
0.430506
0.430519
0.430532
0.430544
0.430544
0.430557
0.43057
0.430582
0.430595
0.430595
0.430608
0.430621
0.430634
0.430646
0.430646
0.430659
0.430672
0.430685
0.430698
0.430698
0.430711
0.430724
0.430738
0.430751
0.430751
0.430764
0.430777
0.43079
0.430803
0.430803
0.430817
0.43083
0.430843
0.430857
0.430857
0.43087
0.430884
0.430897
0.430911
0.430911
0.430924
0.430938
0.430951
0.430965
0.430965
0.430979
0.430992
0.431006
0.43102
0.43102
0.431033
0.431047
0.431061
0.431075
0.431075
0.431089
0.431103
0.431117
0.431131
0.431131
0.431145
0.431159
0.431173
0.431187
0.431187
0.431201
0.431215
0.43123
0.431244
0.431244
0.431258
0.431272
0.431287
0.431301
0.431301
0.431315
0.43133
0.431344
0.431359
0.431359
0.431373
0.431388
0.431403
0.431417
0.431417
0.431432
0.431446
0.431461
0.431476
0.431476
0.431491
0.431505
0.43152
0.431535
0.431535
0.43155
0.431565
0.43158
0.431595
0.431595
0.43161
0.431625
0.43164
0.431655
0.431655
0.43167
0.431685
0.431701
0.431716
0.431716
0.431731
0.431746
0.431762
0.431777
0.431777
0.431792
0.431808
0.431823
0.431839
0.431839
0.431854
0.43187
0.431885
0.431901
0.431901
0.431917
0.431932
0.431948
0.431964
0.431964
0.431979
0.431995
0.432011
0.432027
0.432027
0.432043
0.432059
0.432075
0.432091
0.432091
0.432107
0.432123
0.432139
0.432155
0.432155
0.432171
0.432187
0.432203
0.432219
0.432219
0.432236
0.432252
0.432268
0.432285
0.432285
0.432301
0.432317
0.432334
0.43235
0.43235
0.432367
0.432383
0.4324
0.432417
0.432417
0.432433
0.43245
0.432466
0.432483
0.432483
0.4325
0.432517
0.432534
0.43255
0.43255
0.432567
0.432584
0.432601
0.432618
0.432618
0.432635
0.432652
0.432669
0.432686
0.432686
0.432703
0.43272
0.432738
0.432755
0.432755
0.432772
0.432789
0.432807
0.432824
0.432824
0.432841
0.432859
0.432876
0.432894
0.432894
0.432911
0.432929
0.432946
0.432964
0.432964
0.432981
0.432999
0.433017
0.433034
0.433034
0.433052
0.43307
0.433088
0.433106
0.433106
0.433123
0.433141
0.433159
0.433177
0.433177
0.433195
0.433213
0.433231
0.433249
0.433249
0.433267
0.433286
0.433304
0.433322
0.433322
0.43334
0.433358
0.433377
0.433395
0.433395
0.433413
0.433432
0.43345
0.433469
0.433469
0.433487
0.433506
0.433524
0.433543
0.433543
0.433561
0.43358
0.433599
0.433617
0.433617
0.433636
0.433655
0.433674
0.433692
0.433692
0.433711
0.43373
0.433749
0.433768
0.433768
0.433787
0.433806
0.433825
0.433844
0.433844
0.433863
0.433882
0.433902
0.433921
0.433921
0.43394
0.433959
0.433979
0.433998
0.433998
0.434017
0.434037
0.434056
0.434075
0.434075
0.434095
0.434114
0.434134
0.434154
0.434154
0.434173
0.434193
0.434212
0.434232
0.434232
0.434252
0.434272
0.434291
0.434311
0.434311
0.434331
0.434351
0.434371
0.434391
0.434391
0.434411
0.434431
0.434451
0.434471
0.434471
0.434491
0.434511
0.434531
0.434552
0.434552
0.434572
0.434592
0.434612
0.434633
0.434633
0.434653
0.434673
0.434694
0.434714
0.434714
0.434735
0.434755
0.434776
0.434796
0.434796
0.434817
0.434837
0.434858
0.434879
0.434879
0.4349
0.43492
0.434941
0.434962
0.434962
0.434983
0.435004
0.435025
0.435045
0.435045
0.435066
0.435087
0.435108
0.43513
0.43513
0.435151
0.435172
0.435193
0.435214
0.435214
0.435235
0.435257
0.435278
0.435299
0.435299
0.435321
0.435342
0.435363
0.435385
0.435385
0.435406
0.435428
0.435449
0.435471
0.435471
0.435492
0.435514
0.435536
0.435557
0.435557
0.435579
0.435601
0.435623
0.435644
0.435644
0.435666
0.435688
0.43571
0.435732
0.435732
0.435754
0.435776
0.435798
0.43582
0.43582
0.435842
0.435864
0.435886
0.435909
0.435909
0.435931
0.435953
0.435975
0.435998
0.435998
0.43602
0.436042
0.436065
0.436087
0.436087
0.43611
0.436132
0.436155
0.436177
0.436177
0.4362
0.436223
0.436245
0.436268
0.436268
0.436291
0.436313
0.436336
0.436359
0.436359
0.436382
0.436405
0.436428
0.436451
0.436451
0.436474
0.436497
0.43652
0.436543
0.436543
0.436566
0.436589
0.436612
0.436635
0.436635
0.436658
0.436682
0.436705
0.436728
0.436728
0.436752
0.436775
0.436798
0.436822
0.436822
0.436845
0.436869
0.436892
0.436916
0.436916
0.436939
0.436963
0.436987
0.43701
0.43701
0.437034
0.437058
0.437082
0.437106
0.437106
0.437129
0.437153
0.437177
0.437201
0.437201
0.437225
0.437249
0.437273
0.437297
0.437297
0.437321
0.437345
0.43737
0.437394
0.437394
0.437418
0.437442
0.437467
0.437491
0.437491
0.437515
0.43754
0.437564
0.437588
0.437588
0.437613
0.437637
0.437662
0.437686
0.437686
0.437711
0.437736
0.43776
0.437785
0.437785
0.43781
0.437835
0.437859
0.437884
0.437884
0.437909
0.437934
0.437959
0.437984
0.437984
0.438009
0.438034
0.438059
0.438084
0.438084
0.438109
0.438134
0.438159
0.438184
0.438184
0.43821
0.438235
0.43826
0.438286
0.438286
0.438311
0.438336
0.438362
0.438387
0.438387
0.438413
0.438438
0.438464
0.438489
0.438489
0.438515
0.43854
0.438566
0.438592
0.438592
0.438618
0.438643
0.438669
0.438695
0.438695
0.438721
0.438747
0.438773
0.438799
0.438799
0.438825
0.438851
0.438877
0.438903
0.438903
0.438929
0.438955
0.438981
0.439007
0.439007
0.439034
0.43906
0.439086
0.439112
0.439112
0.439139
0.439165
0.439192
0.439218
0.439218
0.439245
0.439271
0.439298
0.439324
0.439324
0.439351
0.439377
0.439404
0.439431
0.439431
0.439458
0.439484
0.439511
0.439538
0.439538
0.439565
0.439592
0.439619
0.439646
0.439646
0.439673
0.4397
0.439727
0.439754
0.439754
0.439781
0.439808
0.439835
0.439862
0.439862
0.43989
0.439917
0.439944
0.439972
0.439972
0.439999
0.440026
0.440054
0.440081
0.440081
0.440109
0.440136
0.440164
0.440191
0.440191
0.440219
0.440247
0.440274
0.440302
0.440302
0.44033
0.440358
0.440385
0.440413
0.440413
0.440441
0.440469
0.440497
0.440525
0.440525
0.440553
0.440581
0.440609
0.440637
0.440637
0.440665
0.440693
0.440722
0.44075
0.44075
0.440778
0.440806
0.440835
0.440863
0.440863
0.440891
0.44092
0.440948
0.440977
0.440977
0.441005
0.441034
0.441062
0.441091
0.441091
0.44112
0.441148
0.441177
0.441206
0.441206
0.441234
0.441263
0.441292
0.441321
0.441321
0.44135
0.441379
0.441408
0.441437
0.441437
0.441466
0.441495
0.441524
0.441553
0.441553
0.441582
0.441611
0.44164
0.44167
0.44167
0.441699
0.441728
0.441757
0.441787
0.441787
0.441816
0.441846
0.441875
0.441905
0.441905
0.441934
0.441964
0.441993
0.442023
0.442023
0.442053
0.442082
0.442112
0.442142
0.442142
0.442171
0.442201
0.442231
0.442261
0.442261
0.442291
0.442321
0.442351
0.442381
0.442381
0.442411
0.442441
0.442471
0.442501
0.442501
0.442531
0.442561
0.442592
0.442622
0.442622
0.442652
0.442682
0.442713
0.442743
0.442743
0.442774
0.442804
0.442834
0.442865
0.442865
0.442895
0.442926
0.442957
0.442987
0.442987
0.443018
0.443049
0.443079
0.44311
0.44311
0.443141
0.443172
0.443203
0.443233
0.443233
0.443264
0.443295
0.443326
0.443357
0.443357
0.443388
0.443419
0.443451
0.443482
0.443482
0.443513
0.443544
0.443575
0.443607
0.443607
0.443638
0.443669
0.443701
0.443732
0.443732
0.443763
0.443795
0.443826
0.443858
0.443858
0.443889
0.443921
0.443953
0.443984
0.443984
0.444016
0.444048
0.444079
0.444111
0.444111
0.444143
0.444175
0.444207
0.444239
0.444239
0.444271
0.444303
0.444335
0.444367
0.444367
0.444399
0.444431
0.444463
0.444495
0.444495
0.444527
0.444559
0.444592
0.444624
0.444624
0.444656
0.444689
0.444721
0.444753
0.444753
0.444786
0.444818
0.444851
0.444883
0.444883
0.444916
0.444949
0.444981
0.445014
0.445014
0.445047
0.445079
0.445112
0.445145
0.445145
0.445178
0.445211
0.445244
0.445276
0.445276
0.445309
0.445342
0.445375
0.445409
0.445409
0.445442
0.445475
0.445508
0.445541
0.445541
0.445574
0.445608
0.445641
0.445674
0.445674
0.445707
0.445741
0.445774
0.445808
0.445808
0.445841
0.445875
0.445908
0.445942
0.445942
0.445975
0.446009
0.446043
0.446076
0.446076
0.44611
0.446144
0.446178
0.446211
0.446211
0.446245
0.446279
0.446313
0.446347
0.446347
0.446381
0.446415
0.446449
0.446483
0.446483
0.446517
0.446551
0.446586
0.44662
0.44662
0.446654
0.446688
0.446723
0.446757
0.446757
0.446791
0.446826
0.44686
0.446895
0.446895
0.446929
0.446964
0.446998
0.447033
0.447033
0.447068
0.447102
0.447137
0.447172
0.447172
0.447206
0.447241
0.447276
0.447311
0.447311
0.447346
0.447381
0.447416
0.447451
0.447451
0.447486
0.447521
0.447556
0.447591
0.447591
0.447626
0.447661
0.447696
0.447732
0.447732
0.447767
0.447802
0.447837
0.447873
0.447873
0.447908
0.447944
0.447979
0.448015
0.448015
0.44805
0.448086
0.448121
0.448157
0.448157
0.448193
0.448228
0.448264
0.4483
0.4483
0.448336
0.448371
0.448407
0.448443
0.448443
0.448479
0.448515
0.448551
0.448587
0.448587
0.448623
0.448659
0.448695
0.448731
0.448731
0.448768
0.448804
0.44884
0.448876
0.448876
0.448913
0.448949
0.448985
0.449022
0.449022
0.449058
0.449095
0.449131
0.449168
0.449168
0.449204
0.449241
0.449277
0.449314
0.449314
0.449351
0.449387
0.449424
0.449461
0.449461
0.449498
0.449535
0.449572
0.449608
0.449608
0.449645
0.449682
0.449719
0.449756
0.449756
0.449793
0.449831
0.449868
0.449905
0.449905
0.449942
0.449979
0.450017
0.450054
0.450054
0.450091
0.450129
0.450166
0.450203
0.450203
0.450241
0.450278
0.450316
0.450354
0.450354
0.450391
0.450429
0.450466
0.450504
0.450504
0.450542
0.45058
0.450617
0.450655
0.450655
0.450693
0.450731
0.450769
0.450807
0.450807
0.450845
0.450883
0.450921
0.450959
0.450959
0.450997
0.451035
0.451073
0.451112
0.451112
0.45115
0.451188
0.451227
0.451265
0.451265
0.451303
0.451342
0.45138
0.451419
0.451419
0.451457
0.451496
0.451534
0.451573
0.451573
0.451611
0.45165
0.451689
0.451728
0.451728
0.451766
0.451805
0.451844
0.451883
0.451883
0.451922
0.451961
0.452
0.452039
0.452039
0.452078
0.452117
0.452156
0.452195
0.452195
0.452234
0.452273
0.452312
0.452352
0.452352
0.452391
0.45243
0.45247
0.452509
0.452509
0.452548
0.452588
0.452627
0.452667
0.452667
0.452706
0.452746
0.452786
0.452825
0.452825
0.452865
0.452905
0.452944
0.452984
0.452984
0.453024
0.453064
0.453104
0.453144
0.453144
0.453184
0.453224
0.453264
0.453304
0.453304
0.453344
0.453384
0.453424
0.453464
0.453464
0.453504
0.453545
0.453585
0.453625
0.453625
0.453665
0.453706
0.453746
0.453787
0.453787
0.453827
0.453868
0.453908
0.453949
0.453949
0.453989
0.45403
0.454071
0.454111
0.454111
0.454152
0.454193
0.454234
0.454274
0.454274
0.454315
0.454356
0.454397
0.454438
0.454438
0.454479
0.45452
0.454561
0.454602
0.454602
0.454643
0.454684
0.454726
0.454767
0.454767
0.454808
0.454849
0.454891
0.454932
0.454932
0.454973
0.455015
0.455056
0.455098
0.455098
0.455139
0.455181
0.455222
0.455264
0.455264
0.455306
0.455347
0.455389
0.455431
0.455431
0.455473
0.455514
0.455556
0.455598
0.455598
0.45564
0.455682
0.455724
0.455766
0.455766
0.455808
0.45585
0.455892
0.455934
0.455934
0.455976
0.456019
0.456061
0.456103
0.456103
0.456145
0.456188
0.45623
0.456273
0.456273
0.456315
0.456357
0.4564
0.456442
0.456442
0.456485
0.456528
0.45657
0.456613
0.456613
0.456656
0.456698
0.456741
0.456784
0.456784
0.456827
0.45687
0.456913
0.456955
0.456955
0.456998
0.457041
0.457084
0.457127
0.457127
0.457171
0.457214
0.457257
0.4573
0.4573
0.457343
0.457387
0.45743
0.457473
0.457473
0.457517
0.45756
0.457603
0.457647
0.457647
0.45769
0.457734
0.457777
0.457821
0.457821
0.457865
0.457908
0.457952
0.457996
0.457996
0.458039
0.458083
0.458127
0.458171
0.458171
0.458215
0.458259
0.458303
0.458347
0.458347
0.458391
0.458435
0.458479
0.458523
0.458523
0.458567
0.458611
0.458655
0.4587
0.4587
0.458744
0.458788
0.458833
0.458877
0.458877
0.458921
0.458966
0.45901
0.459055
0.459055
0.459099
0.459144
0.459189
0.459233
0.459233
0.459278
0.459323
0.459367
0.459412
0.459412
0.459457
0.459502
0.459547
0.459592
0.459592
0.459637
0.459682
0.459727
0.459772
0.459772
0.459817
0.459862
0.459907
0.459952
0.459952
0.459997
0.460043
0.460088
0.460133
0.460133
0.460179
0.460224
0.460269
0.460315
0.460315
0.46036
0.460406
0.460451
0.460497
0.460497
0.460543
0.460588
0.460634
0.46068
0.46068
0.460725
0.460771
0.460817
0.460863
0.460863
0.460909
0.460955
0.461001
0.461047
0.461047
0.461093
0.461139
0.461185
0.461231
0.461231
0.461277
0.461323
0.461369
0.461416
0.461416
0.461462
0.461508
0.461555
0.461601
0.461601
0.461647
0.461694
0.46174
0.461787
0.461787
0.461833
0.46188
0.461927
0.461973
0.461973
0.46202
0.462067
0.462113
0.46216
0.46216
0.462207
0.462254
0.462301
0.462348
0.462348
0.462395
0.462442
0.462489
0.462536
0.462536
0.462583
0.46263
0.462677
0.462724
0.462724
0.462772
0.462819
0.462866
0.462913
0.462913
0.462961
0.463008
0.463056
0.463103
0.463103
0.46315
0.463198
0.463246
0.463293
0.463293
0.463341
0.463388
0.463436
0.463484
0.463484
0.463532
0.463579
0.463627
0.463675
0.463675
0.463723
0.463771
0.463819
0.463867
0.463867
0.463915
0.463963
0.464011
0.464059
0.464059
0.464107
0.464156
0.464204
0.464252
0.464252
0.4643
0.464349
0.464397
0.464445
0.464445
0.464494
0.464542
0.464591
0.464639
0.464639
0.464688
0.464736
0.464785
0.464834
0.464834
0.464882
0.464931
0.46498
0.465029
0.465029
0.465078
0.465126
0.465175
0.465224
0.465224
0.465273
0.465322
0.465371
0.46542
0.46542
0.46547
0.465519
0.465568
0.465617
0.465617
0.465666
0.465716
0.465765
0.465814
0.465814
0.465864
0.465913
0.465962
0.466012
0.466012
0.466061
0.466111
0.466161
0.46621
0.46621
0.46626
0.46631
0.466359
0.466409
0.466409
0.466459
0.466509
0.466558
0.466608
0.466608
0.466658
0.466708
0.466758
0.466808
0.466808
0.466858
0.466908
0.466958
0.467009
0.467009
0.467059
0.467109
0.467159
0.46721
0.46721
0.46726
0.46731
0.467361
0.467411
0.467411
0.467462
0.467512
0.467563
0.467613
0.467613
0.467664
0.467714
0.467765
0.467816
0.467816
0.467866
0.467917
0.467968
0.468019
0.468019
0.46807
0.468121
0.468172
0.468223
0.468223
0.468274
0.468325
0.468376
0.468427
0.468427
0.468478
0.468529
0.46858
0.468632
0.468632
0.468683
0.468734
0.468786
0.468837
0.468837
0.468888
0.46894
0.468991
0.469043
0.469043
0.469094
0.469146
0.469198
0.469249
0.469249
0.469301
0.469353
0.469404
0.469456
0.469456
0.469508
0.46956
0.469612
0.469664
0.469664
0.469716
0.469768
0.46982
0.469872
0.469872
0.469924
0.469976
0.470028
0.47008
0.47008
0.470133
0.470185
0.470237
0.470289
0.470289
0.470342
0.470394
0.470447
0.470499
0.470499
0.470552
0.470604
0.470657
0.470709
0.470709
0.470762
0.470815
0.470867
0.47092
0.47092
0.470973
0.471026
0.471079
0.471132
0.471132
0.471184
0.471237
0.47129
0.471343
0.471343
0.471396
0.47145
0.471503
0.471556
0.471556
0.471609
0.471662
0.471716
0.471769
0.471769
0.471822
0.471876
0.471929
0.471982
0.471982
0.472036
0.472089
0.472143
0.472196
0.472196
0.47225
0.472304
0.472357
0.472411
0.472411
0.472465
0.472519
0.472572
0.472626
0.472626
0.47268
0.472734
0.472788
0.472842
0.472842
0.472896
0.47295
0.473004
0.473058
0.473058
0.473113
0.473167
0.473221
0.473275
0.473275
0.47333
0.473384
0.473438
0.473493
0.473493
0.473547
0.473602
0.473656
0.473711
0.473711
0.473765
0.47382
0.473874
0.473929
0.473929
0.473984
0.474039
0.474093
0.474148
0.474148
0.474203
0.474258
0.474313
0.474368
0.474368
0.474423
0.474478
0.474533
0.474588
0.474588
0.474643
0.474698
0.474754
0.474809
0.474809
0.474864
0.474919
0.474975
0.47503
0.47503
0.475085
0.475141
0.475196
0.475252
0.475252
0.475307
0.475363
0.475419
0.475474
0.475474
0.47553
0.475586
0.475641
0.475697
0.475697
0.475753
0.475809
0.475865
0.475921
0.475921
0.475977
0.476033
0.476089
0.476145
0.476145
0.476201
0.476257
0.476313
0.476369
0.476369
0.476426
0.476482
0.476538
0.476595
0.476595
0.476651
0.476707
0.476764
0.47682
0.47682
0.476877
0.476934
0.47699
0.477047
0.477047
0.477103
0.47716
0.477217
0.477274
0.477274
0.47733
0.477387
0.477444
0.477501
0.477501
0.477558
0.477615
0.477672
0.477729
0.477729
0.477786
0.477843
0.4779
0.477958
0.477958
0.478015
0.478072
0.478129
0.478187
0.478187
0.478244
0.478301
0.478359
0.478416
0.478416
0.478474
0.478531
0.478589
0.478647
0.478647
0.478704
0.478762
0.47882
0.478877
0.478877
0.478935
0.478993
0.479051
0.479109
0.479109
0.479167
0.479225
0.479283
0.479341
0.479341
0.479399
0.479457
0.479515
0.479573
0.479573
0.479631
0.47969
0.479748
0.479806
0.479806
0.479864
0.479923
0.479981
0.48004
0.48004
0.480098
0.480157
0.480215
0.480274
0.480274
0.480333
0.480391
0.48045
0.480509
0.480509
0.480567
0.480626
0.480685
0.480744
0.480744
0.480803
0.480862
0.480921
0.48098
0.48098
0.481039
0.481098
0.481157
0.481216
0.481216
0.481275
0.481335
0.481394
0.481453
0.481453
0.481513
0.481572
0.481631
0.481691
0.481691
0.48175
0.48181
0.481869
0.481929
0.481929
0.481989
0.482048
0.482108
0.482168
0.482168
0.482227
0.482287
0.482347
0.482407
0.482407
0.482467
0.482527
0.482587
0.482647
0.482647
0.482707
0.482767
0.482827
0.482887
0.482887
0.482947
0.483008
0.483068
0.483128
0.483128
0.483188
0.483249
0.483309
0.48337
0.48337
0.48343
0.483491
0.483551
0.483612
0.483612
0.483672
0.483733
0.483794
0.483854
0.483854
0.483915
0.483976
0.484037
0.484098
0.484098
0.484159
0.48422
0.48428
0.484341
0.484341
0.484403
0.484464
0.484525
0.484586
0.484586
0.484647
0.484708
0.48477
0.484831
0.484831
0.484892
0.484954
0.485015
0.485076
0.485076
0.485138
0.485199
0.485261
0.485322
0.485322
0.485384
0.485446
0.485507
0.485569
0.485569
0.485631
0.485693
0.485755
0.485816
0.485816
0.485878
0.48594
0.486002
0.486064
0.486064
0.486126
0.486188
0.486251
0.486313
0.486313
0.486375
0.486437
0.486499
0.486562
0.486562
0.486624
0.486686
0.486749
0.486811
0.486811
0.486874
0.486936
0.486999
0.487061
0.487061
0.487124
0.487187
0.487249
0.487312
0.487312
0.487375
0.487438
0.4875
0.487563
0.487563
0.487626
0.487689
0.487752
0.487815
0.487815
0.487878
0.487941
0.488004
0.488068
0.488068
0.488131
0.488194
0.488257
0.488321
0.488321
0.488384
0.488447
0.488511
0.488574
0.488574
0.488638
0.488701
0.488765
0.488828
0.488828
0.488892
0.488956
0.489019
0.489083
0.489083
0.489147
0.489211
0.489275
0.489338
0.489338
0.489402
0.489466
0.48953
0.489594
0.489594
0.489658
0.489723
0.489787
0.489851
0.489851
0.489915
0.489979
0.490044
0.490108
0.490108
0.490172
0.490237
0.490301
0.490366
0.490366
0.49043
0.490495
0.490559
0.490624
0.490624
0.490688
0.490753
0.490818
0.490883
0.490883
0.490947
0.491012
0.491077
0.491142
0.491142
0.491207
0.491272
0.491337
0.491402
0.491402
0.491467
0.491532
0.491597
0.491663
0.491663
0.491728
0.491793
0.491858
0.491924
0.491924
0.491989
0.492055
0.49212
0.492185
0.492185
0.492251
0.492317
0.492382
0.492448
0.492448
0.492513
0.492579
0.492645
0.492711
0.492711
0.492777
0.492842
0.492908
0.492974
0.492974
0.49304
0.493106
0.493172
0.493238
0.493238
0.493304
0.493371
0.493437
0.493503
0.493503
0.493569
0.493636
0.493702
0.493768
0.493768
0.493835
0.493901
0.493968
0.494034
0.494034
0.494101
0.494167
0.494234
0.4943
0.4943
0.494367
0.494434
0.494501
0.494568
0.494568
0.494634
0.494701
0.494768
0.494835
0.494835
0.494902
0.494969
0.495036
0.495103
0.495103
0.49517
0.495238
0.495305
0.495372
0.495372
0.495439
0.495507
0.495574
0.495641
0.495641
0.495709
0.495776
0.495844
0.495911
0.495911
0.495979
0.496047
0.496114
0.496182
0.496182
0.49625
0.496318
0.496385
0.496453
0.496453
0.496521
0.496589
0.496657
0.496725
0.496725
0.496793
0.496861
0.496929
0.496997
0.496997
0.497065
0.497134
0.497202
0.49727
0.49727
0.497339
0.497407
0.497475
0.497544
0.497544
0.497612
0.497681
0.497749
0.497818
0.497818
0.497886
0.497955
0.498024
0.498093
0.498093
0.498161
0.49823
0.498299
0.498368
0.498368
0.498437
0.498506
0.498575
0.498644
0.498644
0.498713
0.498782
0.498851
0.49892
0.49892
0.49899
0.499059
0.499128
0.499197
0.499197
0.499267
0.499336
0.499406
0.499475
0.499475
0.499545
0.499614
0.499684
0.499753
0.499753
0.499823
0.499893
0.499963
0.500032
0.500032
0.500102
0.500172
0.500242
0.500312
0.500312
0.500382
0.500452
0.500522
0.500592
0.500592
0.500662
0.500732
0.500802
0.500873
0.500873
0.500943
0.501013
0.501084
0.501154
0.501154
0.501224
0.501295
0.501365
0.501436
0.501436
0.501506
0.501577
0.501648
0.501718
0.501718
0.501789
0.50186
0.501931
0.502001
0.502001
0.502072
0.502143
0.502214
0.502285
0.502285
0.502356
0.502427
0.502498
0.502569
0.502569
0.502641
0.502712
0.502783
0.502854
0.502854
0.502926
0.502997
0.503068
0.50314
0.50314
0.503211
0.503283
0.503354
0.503426
0.503426
0.503498
0.503569
0.503641
0.503713
0.503713
0.503785
0.503856
0.503928
0.504
0.504
0.504072
0.504144
0.504216
0.504288
0.504288
0.50436
0.504432
0.504504
0.504577
0.504577
0.504649
0.504721
0.504793
0.504866
0.504866
0.504938
0.505011
0.505083
0.505156
0.505156
0.505228
0.505301
0.505373
0.505446
0.505446
0.505519
0.505591
0.505664
0.505737
0.505737
0.50581
0.505883
0.505956
0.506029
0.506029
0.506102
0.506175
0.506248
0.506321
0.506321
0.506394
0.506467
0.50654
0.506614
0.506614
0.506687
0.50676
0.506834
0.506907
0.506907
0.50698
0.507054
0.507128
0.507201
0.507201
0.507275
0.507348
0.507422
0.507496
0.507496
0.50757
0.507643
0.507717
0.507791
0.507791
0.507865
0.507939
0.508013
0.508087
0.508087
0.508161
0.508235
0.508309
0.508383
0.508383
0.508458
0.508532
0.508606
0.508681
0.508681
0.508755
0.508829
0.508904
0.508978
0.508978
0.509053
0.509127
0.509202
0.509277
0.509277
0.509351
0.509426
0.509501
0.509576
0.509576
0.50965
0.509725
0.5098
0.509875
0.509875
0.50995
0.510025
0.5101
0.510175
0.510175
0.510251
0.510326
0.510401
0.510476
0.510476
0.510552
0.510627
0.510702
0.510778
0.510778
0.510853
0.510929
0.511004
0.51108
0.51108
0.511155
0.511231
0.511307
0.511382
0.511382
0.511458
0.511534
0.51161
0.511686
0.511686
0.511762
0.511838
0.511914
0.51199
0.51199
0.512066
0.512142
0.512218
0.512294
0.512294
0.51237
0.512447
0.512523
0.512599
0.512599
0.512676
0.512752
0.512829
0.512905
0.512905
0.512982
0.513058
0.513135
0.513212
0.513212
0.513288
0.513365
0.513442
0.513519
0.513519
0.513595
0.513672
0.513749
0.513826
0.513826
0.513903
0.51398
0.514057
0.514135
0.514135
0.514212
0.514289
0.514366
0.514444
0.514444
0.514521
0.514598
0.514676
0.514753
0.514753
0.514831
0.514908
0.514986
0.515063
0.515063
0.515141
0.515219
0.515296
0.515374
0.515374
0.515452
0.51553
0.515608
0.515686
0.515686
0.515763
0.515841
0.51592
0.515998
0.515998
0.516076
0.516154
0.516232
0.51631
0.51631
0.516389
0.516467
0.516545
0.516624
0.516624
0.516702
0.516781
0.516859
0.516938
0.516938
0.517016
0.517095
0.517173
0.517252
0.517252
0.517331
0.51741
0.517489
0.517567
0.517567
0.517646
0.517725
0.517804
0.517883
0.517883
0.517962
0.518041
0.518121
0.5182
0.5182
0.518279
0.518358
0.518438
0.518517
0.518517
0.518596
0.518676
0.518755
0.518835
0.518835
0.518914
0.518994
0.519073
0.519153
0.519153
0.519233
0.519312
0.519392
0.519472
0.519472
0.519552
0.519632
0.519712
0.519792
0.519792
0.519872
0.519952
0.520032
0.520112
0.520112
0.520192
0.520272
0.520353
0.520433
0.520433
0.520513
0.520594
0.520674
0.520755
0.520755
0.520835
0.520916
0.520996
0.521077
0.521077
0.521157
0.521238
0.521319
0.5214
0.5214
0.521481
0.521561
0.521642
0.521723
0.521723
0.521804
0.521885
0.521966
0.522047
0.522047
0.522129
0.52221
0.522291
0.522372
0.522372
0.522453
0.522535
0.522616
0.522698
0.522698
0.522779
0.522861
0.522942
0.523024
0.523024
0.523105
0.523187
0.523269
0.52335
0.52335
0.523432
0.523514
0.523596
0.523678
0.523678
0.52376
0.523842
0.523924
0.524006
0.524006
0.524088
0.52417
0.524252
0.524334
0.524334
0.524417
0.524499
0.524581
0.524664
0.524664
0.524746
0.524829
0.524911
0.524994
0.524994
0.525076
0.525159
0.525242
0.525324
0.525324
0.525407
0.52549
0.525573
0.525656
0.525656
0.525739
0.525822
0.525905
0.525988
0.525988
0.526071
0.526154
0.526237
0.52632
0.52632
0.526403
0.526487
0.52657
0.526653
0.526653
0.526737
0.52682
0.526904
0.526987
0.526987
0.527071
0.527154
0.527238
0.527322
0.527322
0.527405
0.527489
0.527573
0.527657
0.527657
0.527741
0.527825
0.527909
0.527993
0.527993
0.528077
0.528161
0.528245
0.528329
0.528329
0.528413
0.528498
0.528582
0.528666
0.528666
0.528751
0.528835
0.52892
0.529004
0.529004
0.529089
0.529173
0.529258
0.529343
0.529343
0.529427
0.529512
0.529597
0.529682
0.529682
0.529767
0.529852
0.529937
0.530022
0.530022
0.530107
0.530192
0.530277
0.530362
0.530362
0.530447
0.530532
0.530618
0.530703
0.530703
0.530788
0.530874
0.530959
0.531045
0.531045
0.53113
0.531216
0.531302
0.531387
0.531387
0.531473
0.531559
0.531644
0.53173
0.53173
0.531816
0.531902
0.531988
0.532074
0.532074
0.53216
0.532246
0.532332
0.532418
0.532418
0.532505
0.532591
0.532677
0.532764
0.532764
0.53285
0.532936
0.533023
0.533109
0.533109
0.533196
0.533282
0.533369
0.533456
0.533456
0.533542
0.533629
0.533716
0.533803
0.533803
0.53389
0.533977
0.534063
0.53415
0.53415
0.534238
0.534325
0.534412
0.534499
0.534499
0.534586
0.534673
0.534761
0.534848
0.534848
0.534935
0.535023
0.53511
0.535198
0.535198
0.535285
0.535373
0.53546
0.535548
0.535548
0.535636
0.535724
0.535811
0.535899
0.535899
0.535987
0.536075
0.536163
0.536251
0.536251
0.536339
0.536427
0.536515
0.536603
0.536603
0.536692
0.53678
0.536868
0.536957
0.536957
0.537045
0.537133
0.537222
0.53731
0.53731
0.537399
0.537487
0.537576
0.537665
0.537665
0.537754
0.537842
0.537931
0.53802
0.53802
0.538109
0.538198
0.538287
0.538376
0.538376
0.538465
0.538554
0.538643
0.538732
0.538732
0.538821
0.538911
0.539
0.539089
0.539089
0.539179
0.539268
0.539358
0.539447
0.539447
0.539537
0.539626
0.539716
0.539806
0.539806
0.539896
0.539985
0.540075
0.540165
0.540165
0.540255
0.540345
0.540435
0.540525
0.540525
0.540615
0.540705
0.540795
0.540885
0.540885
0.540976
0.541066
0.541156
0.541247
0.541247
0.541337
0.541428
0.541518
0.541609
0.541609
0.541699
0.54179
0.541881
0.541971
0.541971
0.542062
0.542153
0.542244
0.542335
0.542335
0.542426
0.542517
0.542608
0.542699
0.542699
0.54279
0.542881
0.542972
0.543063
0.543063