<?xml version="1.0"?>
<VTKFile type="UnstructuredGrid" version="0.1" byte_order="LittleEndian">
<UnstructuredGrid>
<Piece NumberOfPoints="5000" NumberOfCells="4000">
<PointData Scalars="Reaction 0">
<DataArray type="Float32" Name="Reaction 0" format="ascii">
0.574212
0.574212
0.574212
0.574212
0.574212
0.574212
0.574212
0.574212
0.574212
0.574212
0.574212
0.574212
0.574212
0.574212
0.574212
0.574212
0.574213
0.574213
0.574213
0.574213
0.574213
0.574213
0.574213
0.574213
0.574213
0.574213
0.574213
0.574213
0.574213
0.574213
0.574213
0.574214
0.574214
0.574214
0.574214
0.574214
0.574214
0.574214
0.574214
0.574214
0.574214
0.574215
0.574215
0.574215
0.574215
0.574215
0.574215
0.574215
0.574216
0.574216
0.574216
0.574216
0.574216
0.574216
0.574217
0.574217
0.574217
0.574217
0.574217
0.574217
0.574217
0.574218
0.574218
0.574218
0.574218
0.574218
0.574219
0.574219
0.574219
0.574219
0.574219
0.57422
0.57422
0.57422
0.57422
0.57422
0.574221
0.574221
0.574221
0.574222
0.574222
0.574222
0.574222
0.574223
0.574223
0.574223
0.574223
0.574223
0.574224
0.574224
0.574224
0.574224
0.574225
0.574225
0.574226
0.574226
0.574226
0.574226
0.574227
0.574227
0.574227
0.574227
0.574228
0.574228
0.574228
0.574228
0.574229
0.574229
0.57423
0.57423
0.57423
0.57423
0.574231
0.574231
0.574232
0.574232
0.574232
0.574233
0.574233
0.574234
0.574234
0.574234
0.574234
0.574235
0.574235
0.574235
0.574236
0.574236
0.574237
0.574237
0.574237
0.574238
0.574238
0.574239
0.574239
0.574239
0.57424
0.57424
0.574241
0.574241
0.574241
0.574242
0.574242
0.574243
0.574243
0.574243
0.574244
0.574244
0.574245
0.574246
0.574246
0.574246
0.574247
0.574247
0.574248
0.574248
0.574248
0.574249
0.57425
0.57425
0.57425
0.574251
0.574251
0.574252
0.574253
0.574253
0.574253
0.574254
0.574254
0.574255
0.574255
0.574256
0.574256
0.574257
0.574258
0.574258
0.574258
0.574259
0.57426
0.57426
0.57426
0.574261
0.574262
0.574262
0.574263
0.574263
0.574264
0.574264
0.574265
0.574266
0.574266
0.574267
0.574267
0.574268
0.574269
0.574269
0.574269
0.57427
0.574271
0.574272
0.574272
0.574272
0.574273
0.574274
0.574275
0.574275
0.574275
0.574276
0.574277
0.574278
0.574278
0.574279
0.574279
0.57428
0.574281
0.574281
0.574282
0.574283
0.574283
0.574284
0.574284
0.574285
0.574286
0.574287
0.574287
0.574287
0.574288
0.574289
0.57429
0.574291
0.574291
0.574292
0.574293
0.574293
0.574294
0.574294
0.574295
0.574296
0.574297
0.574298
0.574298
0.574299
0.5743
0.574301
0.574302
0.574302
0.574302
0.574303
0.574304
0.574305
0.574305
0.574306
0.574307
0.574308
0.574309
0.574309
0.57431
0.574311
0.574312
0.574313
0.574313
0.574314
0.574315
0.574316
0.574317
0.574317
0.574318
0.574319
0.57432
0.574321
0.574321
0.574322
0.574323
0.574324
0.574325
0.574325
0.574326
0.574327
0.574328
0.574329
0.574329
0.57433
0.574331
0.574332
0.574333
0.574333
0.574334
0.574335
0.574336
0.574338
0.574338
0.574339
0.57434
0.574341
0.574342
0.574342
0.574343
0.574344
0.574345
0.574346
0.574346
0.574348
0.574349
0.57435
0.574351
0.574351
0.574352
0.574353
0.574354
0.574356
0.574356
0.574357
0.574358
0.574359
0.57436
0.57436
0.574361
0.574363
0.574364
0.574365
0.574365
0.574366
0.574367
0.574369
0.57437
0.57437
0.574371
0.574372
0.574374
0.574375
0.574375
0.574376
0.574377
0.574379
0.57438
0.57438
0.574381
0.574382
0.574384
0.574385
0.574385
0.574386
0.574387
0.574389
0.57439
0.57439
0.574391
0.574393
0.574394
0.574395
0.574395
0.574397
0.574398
0.574399
0.574401
0.574401
0.574402
0.574403
0.574405
0.574406
0.574406
0.574407
0.574409
0.57441
0.574411
0.574411
0.574413
0.574414
0.574415
0.574417
0.574417
0.574418
0.57442
0.574421
0.574422
0.574422
0.574424
0.574425
0.574427
0.574428
0.574428
0.57443
0.574431
0.574433
0.574434
0.574434
0.574435
0.574437
0.574438
0.57444
0.57444
0.574441
0.574443
0.574444
0.574446
0.574446
0.574447
0.574449
0.57445
0.574452
0.574452
0.574453
0.574455
0.574456
0.574458
0.574458
0.574459
0.574461
0.574463
0.574464
0.574464
0.574466
0.574467
0.574469
0.57447
0.57447
0.574472
0.574473
0.574475
0.574477
0.574477
0.574478
0.57448
0.574481
0.574483
0.574483
0.574485
0.574486
0.574488
0.57449
0.57449
0.574491
0.574493
0.574494
0.574496
0.574496
0.574498
0.574499
0.574501
0.574503
0.574503
0.574504
0.574506
0.574508
0.574509
0.574509
0.574511
0.574513
0.574515
0.574516
0.574516
0.574518
0.57452
0.574521
0.574523
0.574523
0.574525
0.574527
0.574528
0.57453
0.57453
0.574532
0.574534
0.574535
0.574537
0.574537
0.574539
0.574541
0.574542
0.574544
0.574544
0.574546
0.574548
0.57455
0.574551
0.574551
0.574553
0.574555
0.574557
0.574559
0.574559
0.574561
0.574562
0.574564
0.574566
0.574566
0.574568
0.57457
0.574572
0.574574
0.574574
0.574575
0.574577
0.574579
0.574581
0.574581
0.574583
0.574585
0.574587
0.574589
0.574589
0.574591
0.574592
0.574594
0.574596
0.574596
0.574598
0.5746
0.574602
0.574604
0.574604
0.574606
0.574608
0.57461
0.574612
0.574612
0.574614
0.574616
0.574618
0.57462
0.57462
0.574622
0.574624
0.574626
0.574628
0.574628
0.57463
0.574632
0.574634
0.574636
0.574636
0.574638
0.57464
0.574642
0.574644
0.574644
0.574646
0.574648
0.57465
0.574652
0.574652
0.574654
0.574657
0.574659
0.574661
0.574661
0.574663
0.574665
0.574667
0.574669
0.574669
0.574671
0.574673
0.574675
0.574678
0.574678
0.57468
0.574682
0.574684
0.574686
0.574686
0.574688
0.574691
0.574693
0.574695
0.574695
0.574697
0.574699
0.574701
0.574704
0.574704
0.574706
0.574708
0.57471
0.574712
0.574712
0.574715
0.574717
0.574719
0.574721
0.574721
0.574724
0.574726
0.574728
0.57473
0.57473
0.574733
0.574735
0.574737
0.574739
0.574739
0.574742
0.574744
0.574746
0.574749
0.574749
0.574751
0.574753
0.574756
0.574758
0.574758
0.57476
0.574763
0.574765
0.574767
0.574767
0.57477
0.574772
0.574774
0.574777
0.574777
0.574779
0.574781
0.574784
0.574786
0.574786
0.574788
0.574791
0.574793
0.574796
0.574796
0.574798
0.574801
0.574803
0.574805
0.574805
0.574808
0.57481
0.574813
0.574815
0.574815
0.574818
0.57482
0.574822
0.574825
0.574825
0.574827
0.57483
0.574832
0.574835
0.574835
0.574837
0.57484
0.574842
0.574845
0.574845
0.574847
0.57485
0.574852
0.574855
0.574855
0.574858
0.57486
0.574863
0.574865
0.574865
0.574868
0.57487
0.574873
0.574875
0.574875
0.574878
0.574881
0.574883
0.574886
0.574886
0.574888
0.574891
0.574894
0.574896
0.574896
0.574899
0.574901
0.574904
0.574907
0.574907
0.574909
0.574912
0.574915
0.574917
0.574917
0.57492
0.574923
0.574925
0.574928
0.574928
0.574931
0.574933
0.574936
0.574939
0.574939
0.574942
0.574944
0.574947
0.57495
0.57495
0.574952
0.574955
0.574958
0.574961
0.574961
0.574963
0.574966
0.574969
0.574972
0.574972
0.574975
0.574977
0.57498
0.574983
0.574983
0.574986
0.574988
0.574991
0.574994
0.574994
0.574997
0.575
0.575003
0.575005
0.575005
0.575008
0.575011
0.575014
0.575017
0.575017
0.57502
0.575023
0.575025
0.575028
0.575028
0.575031
0.575034
0.575037
0.57504
0.57504
0.575043
0.575046
0.575049
0.575052
0.575052
0.575054
0.575057
0.57506
0.575063
0.575063
0.575066
0.575069
0.575072
0.575075
0.575075
0.575078
0.575081
0.575084
0.575087
0.575087
0.57509
0.575093
0.575096
0.575099
0.575099
0.575102
0.575105
0.575108
0.575111
0.575111
0.575114
0.575117
0.57512
0.575123
0.575123
0.575126
0.57513
0.575133
0.575136
0.575136
0.575139
0.575142
0.575145
0.575148
0.575148
0.575151
0.575154
0.575157
0.57516
0.57516
0.575164
0.575167
0.57517
0.575173
0.575173
0.575176
0.575179
0.575182
0.575186
0.575186
0.575189
0.575192
0.575195
0.575198
0.575198
0.575202
0.575205
0.575208
0.575211
0.575211
0.575215
0.575218
0.575221
0.575224
0.575224
0.575228
0.575231
0.575234
0.575237
0.575237
0.575241
0.575244
0.575247
0.575251
0.575251
0.575254
0.575257
0.57526
0.575264
0.575264
0.575267
0.57527
0.575274
0.575277
0.575277
0.57528
0.575284
0.575287
0.57529
0.57529
0.575294
0.575297
0.575301
0.575304
0.575304
0.575307
0.575311
0.575314
0.575318
0.575318
0.575321
0.575324
0.575328
0.575331
0.575331
0.575335
0.575338
0.575342
0.575345
0.575345
0.575348
0.575352
0.575355
0.575359
0.575359
0.575362
0.575366
0.575369
0.575373
0.575373
0.575376
0.57538
0.575383
0.575387
0.575387
0.57539
0.575394
0.575398
0.575401
0.575401
0.575405
0.575408
0.575412
0.575415
0.575415
0.575419
0.575423
0.575426
0.57543
0.57543
0.575433
0.575437
0.575441
0.575444
0.575444
0.575448
0.575451
0.575455
0.575459
0.575459
0.575462
0.575466
0.57547
0.575473
0.575473
0.575477
0.575481
0.575484
0.575488
0.575488
0.575492
0.575495
0.575499
0.575503
0.575503
0.575507
0.57551
0.575514
0.575518
0.575518
0.575522
0.575525
0.575529
0.575533
0.575533
0.575537
0.57554
0.575544
0.575548
0.575548
0.575552
0.575556
0.575559
0.575563
0.575563
0.575567
0.575571
0.575575
0.575579
0.575579
0.575582
0.575586
0.57559
0.575594
0.575594
0.575598
0.575602
0.575606
0.57561
0.57561
0.575613
0.575617
0.575621
0.575625
0.575625
0.575629
0.575633
0.575637
0.575641
0.575641
0.575645
0.575649
0.575653
0.575657
0.575657
0.575661
0.575665
0.575669
0.575673
0.575673
0.575677
0.575681
0.575685
0.575689
0.575689
0.575693
0.575697
0.575701
0.575705
0.575705
0.575709
0.575713
0.575717
0.575721
0.575721
0.575725
0.575729
0.575733
0.575737
0.575737
0.575741
0.575746
0.57575
0.575754
0.575754
0.575758
0.575762
0.575766
0.57577
0.57577
0.575774
0.575779
0.575783
0.575787
0.575787
0.575791
0.575795
0.5758
0.575804
0.575804
0.575808
0.575812
0.575816
0.575821
0.575821
0.575825
0.575829
0.575833
0.575837
0.575837
0.575842
0.575846
0.57585
0.575855
0.575855
0.575859
0.575863
0.575867
0.575872
0.575872
0.575876
0.57588
0.575885
0.575889
0.575889
0.575893
0.575898
0.575902
0.575906
0.575906
0.575911
0.575915
0.575919
0.575924
0.575924
0.575928
0.575933
0.575937
0.575941
0.575941
0.575946
0.57595
0.575955
0.575959
0.575959
0.575963
0.575968
0.575972
0.575977
0.575977
0.575981
0.575986
0.57599
0.575994
0.575994
0.575999
0.576003
0.576008
0.576012
0.576012
0.576017
0.576021
0.576026
0.576031
0.576031
0.576035
0.57604
0.576044
0.576049
0.576049
0.576053
0.576058
0.576063
0.576067
0.576067
0.576072
0.576077
0.576081
0.576086
0.576086
0.57609
0.576095
0.5761
0.576104
0.576104
0.576109
0.576114
0.576118
0.576123
0.576123
0.576128
0.576132
0.576137
0.576142
0.576142
0.576147
0.576151
0.576156
0.576161
0.576161
0.576165
0.57617
0.576175
0.57618
0.57618
0.576184
0.576189
0.576194
0.576199
0.576199
0.576204
0.576208
0.576213
0.576218
0.576218
0.576223
0.576228
0.576232
0.576237
0.576237
0.576242
0.576247
0.576252
0.576257
0.576257
0.576262
0.576266
0.576271
0.576276
0.576276
0.576281
0.576286
0.576291
0.576296
0.576296
0.576301
0.576306
0.576311
0.576316
0.576316
0.576321
0.576326
0.576331
0.576336
0.576336
0.576341
0.576345
0.57635
0.576356
0.576356
0.576361
0.576366
0.576371
0.576376
0.576376
0.576381
0.576386
0.576391
0.576396
0.576396
0.576401
0.576406
0.576411
0.576416
0.576416
0.576421
0.576426
0.576431
0.576437
0.576437
0.576442
0.576447
0.576452
0.576457
0.576457
0.576462
0.576467
0.576473
0.576478
0.576478
0.576483
0.576488
0.576493
0.576499
0.576499
0.576504
0.576509
0.576514
0.57652
0.57652
0.576525
0.57653
0.576535
0.576541
0.576541
0.576546
0.576551
0.576556
0.576562
0.576562
0.576567
0.576572
0.576578
0.576583
0.576583
0.576588
0.576594
0.576599
0.576604
0.576604
0.57661
0.576615
0.57662
0.576626
0.576626
0.576631
0.576637
0.576642
0.576647
0.576647
0.576653
0.576658
0.576664
0.576669
0.576669
0.576675
0.57668
0.576686
0.576691
0.576691
0.576697
0.576702
0.576708
0.576713
0.576713
0.576719
0.576724
0.57673
0.576735
0.576735
0.576741
0.576746
0.576752
0.576757
0.576757
0.576763
0.576769
0.576774
0.57678
0.57678
0.576785
0.576791
0.576797
0.576802
0.576802
0.576808
0.576813
0.576819
0.576825
0.576825
0.57683
0.576836
0.576842
0.576847
0.576847
0.576853
0.576859
0.576864
0.57687
0.57687
0.576876
0.576881
0.576887
0.576893
0.576893
0.576899
0.576904
0.57691
0.576916
0.576916
0.576922
0.576928
0.576933
0.576939
0.576939
0.576945
0.576951
0.576957
0.576963
0.576963
0.576969
0.576974
0.57698
0.576986
0.576986
0.576992
0.576998
0.577004
0.57701
0.57701
0.577016
0.577022
0.577028
0.577034
0.577034
0.57704
0.577045
0.577051
0.577057
0.577057
0.577063
0.577069
0.577075
0.577081
0.577081
0.577087
0.577093
0.577099
0.577105
0.577105
0.577112
0.577118
0.577124
0.57713
0.57713
0.577136
0.577142
0.577148
0.577154
0.577154
0.57716
0.577166
0.577172
0.577179
0.577179
0.577185
0.577191
0.577197
0.577203
0.577203
0.577209
0.577215
0.577222
0.577228
0.577228
0.577234
0.57724
0.577247
0.577253
0.577253
0.577259
0.577265
0.577271
0.577278
0.577278
0.577284
0.57729
0.577297
0.577303
0.577303
0.577309
0.577315
0.577322
0.577328
0.577328
0.577334
0.577341
0.577347
0.577354
0.577354
0.57736
0.577366
0.577373
0.577379
0.577379
0.577385
0.577392
0.577398
0.577405
0.577405
0.577411
0.577418
0.577424
0.577431
0.577431
0.577437
0.577443
0.57745
0.577456
0.577456
0.577463
0.577469
0.577476
0.577483
0.577483
0.577489
0.577496
0.577502
0.577509
0.577509
0.577515
0.577522
0.577528
0.577535
0.577535
0.577542
0.577548
0.577555
0.577562
0.577562
0.577568
0.577575
0.577581
0.577588
0.577588
0.577595
0.577601
0.577608
0.577615
0.577615
0.577622
0.577628
0.577635
0.577642
0.577642
0.577649
0.577655
0.577662
0.577669
0.577669
0.577676
0.577682
0.577689
0.577696
0.577696
0.577703
0.57771
0.577716
0.577723
0.577723
0.57773
0.577737
0.577744
0.577751
0.577751
0.577758
0.577764
0.577771
0.577778
0.577778
0.577785
0.577792
0.577799
0.577806
0.577806
0.577813
0.57782
0.577827
0.577833
0.577833
0.57784
0.577847
0.577854
0.577861
0.577861
0.577868
0.577876
0.577883
0.57789
0.57789
0.577897
0.577904
0.577911
0.577918
0.577918
0.577925
0.577932
0.57794
0.577947
0.577947
0.577954
0.577961
0.577968
0.577975
0.577975
0.577983
0.57799
0.577997
0.578004
0.578004
0.578011
0.578019
0.578026
0.578033
0.578033
0.57804
0.578048
0.578055
0.578062
0.578062
0.578069
0.578077
0.578084
0.578091
0.578091
0.578099
0.578106
0.578113
0.578121
0.578121
0.578128
0.578135
0.578143
0.57815
0.57815
0.578157
0.578165
0.578172
0.57818
0.57818
0.578187
0.578195
0.578202
0.578209
0.578209
0.578217
0.578224
0.578232
0.578239
0.578239
0.578247
0.578254
0.578262
0.578269
0.578269
0.578277
0.578285
0.578292
0.5783
0.5783
0.578307
0.578315
0.578322
0.57833
0.57833
0.578338
0.578345
0.578353
0.578361
0.578361
0.578368
0.578376
0.578384
0.578391
0.578391
0.578399
0.578407
0.578414
0.578422
0.578422
0.57843
0.578438
0.578445
0.578453
0.578453
0.578461
0.578469
0.578476
0.578484
0.578484
0.578492
0.5785
0.578508
0.578516
0.578516
0.578523
0.578531
0.578539
0.578547
0.578547
0.578555
0.578563
0.578571
0.578579
0.578579
0.578587
0.578594
0.578602
0.57861
0.57861
0.578618
0.578626
0.578634
0.578642
0.578642
0.57865
0.578658
0.578666
0.578674
0.578674
0.578682
0.57869
0.578699
0.578707
0.578707
0.578715
0.578723
0.578731
0.578739
0.578739
0.578747
0.578755
0.578763
0.578771
0.578771
0.57878
0.578788
0.578796
0.578804
0.578804
0.578812
0.57882
0.578829
0.578837
0.578837
0.578845
0.578853
0.578861
0.57887
0.57887
0.578878
0.578886
0.578895
0.578903
0.578903
0.578911
0.57892
0.578928
0.578937
0.578937
0.578945
0.578953
0.578962
0.57897
0.57897
0.578979
0.578987
0.578996
0.579004
0.579004
0.579013
0.579021
0.57903
0.579038
0.579038
0.579047
0.579055
0.579064
0.579072
0.579072
0.579081
0.579089
0.579098
0.579106
0.579106
0.579115
0.579123
0.579132
0.579141
0.579141
0.579149
0.579158
0.579167
0.579175
0.579175
0.579184
0.579193
0.579201
0.57921
0.57921
0.579219
0.579227
0.579236
0.579245
0.579245
0.579254
0.579262
0.579271
0.57928
0.57928
0.579289
0.579298
0.579306
0.579315
0.579315
0.579324
0.579333
0.579342
0.579351
0.579351
0.579359
0.579368
0.579377
0.579386
0.579386
0.579395
0.579404
0.579413
0.579422
0.579422
0.579431
0.57944
0.579449
0.579458
0.579458
0.579467
0.579476
0.579485
0.579494
0.579494
0.579503
0.579512
0.579521
0.57953
0.57953
0.579539
0.579548
0.579558
0.579567
0.579567
0.579576
0.579585
0.579594
0.579603
0.579603
0.579613
0.579622
0.579631
0.57964
0.57964
0.579649
0.579659
0.579668
0.579677
0.579677
0.579686
0.579696
0.579705
0.579714
0.579714
0.579724
0.579733
0.579742
0.579752
0.579752
0.579761
0.57977
0.57978
0.579789
0.579789
0.579799
0.579808
0.579817
0.579827
0.579827
0.579836
0.579846
0.579855
0.579865
0.579865
0.579874
0.579884
0.579893
0.579903
0.579903
0.579912
0.579922
0.579931
0.579941
0.579941
0.57995
0.57996
0.579969
0.579979
0.579979
0.579989
0.579998
0.580008
0.580018
0.580018
0.580028
0.580037
0.580047
0.580057
0.580057
0.580067
0.580076
0.580086
0.580096
0.580096
0.580106
0.580116
0.580125
0.580135
0.580135
0.580145
0.580155
0.580165
0.580175
0.580175
0.580185
0.580195
0.580204
0.580214
0.580214
0.580224
0.580234
0.580244
0.580254
0.580254
0.580264
0.580274
0.580284
0.580294
0.580294
0.580304
0.580314
0.580324
0.580334
0.580334
0.580344
0.580354
0.580365
0.580375
0.580375
0.580385
0.580395
0.580405
0.580415
0.580415
0.580425
0.580436
0.580446
0.580456
0.580456
0.580466
0.580476
0.580487
0.580497
0.580497
0.580507
0.580517
0.580528
0.580538
0.580538
0.580548
0.580559
0.580569
0.580579
0.580579
0.58059
0.5806
0.580611
0.580621
0.580621
0.580631
0.580642
0.580652
0.580663
0.580663
0.580673
0.580684
0.580694
0.580705
0.580705
0.580715
0.580726
0.580736
0.580747
0.580747
0.580757
0.580768
0.580778
0.580789
0.580789
0.5808
0.58081
0.580821
0.580832
0.580832
0.580842
0.580853
0.580864
0.580874
0.580874
0.580885
0.580896
0.580906
0.580917
0.580917
0.580928
0.580939
0.58095
0.58096
0.58096
0.580971
0.580982
0.580993
0.581004
0.581004
0.581014
0.581025
0.581036
0.581047
0.581047
0.581058
0.581069
0.58108
0.581091
0.581091
0.581101
0.581112
0.581123
0.581135
0.581135
0.581146
0.581157
0.581168
0.581179
0.581179
0.58119
0.581201
0.581212
0.581224
0.581224
0.581235
0.581246
0.581257
0.581268
0.581268
0.581279
0.581291
0.581302
0.581313
0.581313
0.581324
0.581336
0.581347
0.581358
0.581358
0.58137
0.581381
0.581392
0.581404
0.581404
0.581415
0.581426
0.581438
0.581449
0.581449
0.58146
0.581472
0.581483
0.581495
0.581495
0.581506
0.581518
0.581529
0.581541
0.581541
0.581552
0.581564
0.581575
0.581587
0.581587
0.581598
0.58161
0.581621
0.581633
0.581633
0.581645
0.581656
0.581668
0.58168
0.58168
0.581691
0.581703
0.581715
0.581726
0.581726
0.581738
0.58175
0.581762
0.581773
0.581773
0.581785
0.581797
0.581809
0.581821
0.581821
0.581833
0.581844
0.581856
0.581868
0.581868
0.58188
0.581892
0.581904
0.581916
0.581916
0.581928
0.58194
0.581952
0.581964
0.581964
0.581976
0.581988
0.582
0.582012
0.582012
0.582024
0.582036
0.582048
0.58206
0.58206
0.582072
0.582085
0.582097
0.582109
0.582109
0.582121
0.582133
0.582145
0.582158
0.582158
0.58217
0.582182
0.582194
0.582207
0.582207
0.582219
0.582231
0.582243
0.582256
0.582256
0.582268
0.58228
0.582293
0.582305
0.582305
0.582317
0.58233
0.582342
0.582355
0.582355
0.582367
0.58238
0.582392
0.582405
0.582405
0.582417
0.58243
0.582443
0.582455
0.582455
0.582468
0.582481
0.582493
0.582506
0.582506
0.582519
0.582531
0.582544
0.582557
0.582557
0.582569
0.582582
0.582595
0.582608
0.582608
0.58262
0.582633
0.582646
0.582659
0.582659
0.582672
0.582685
0.582697
0.58271
0.58271
0.582723
0.582736
0.582749
0.582762
0.582762
0.582775
0.582788
0.582801
0.582814
0.582814
0.582827
0.58284
0.582853
0.582866
0.582866
0.582879
0.582892
0.582905
0.582919
0.582919
0.582932
0.582945
0.582958
0.582971
0.582971
0.582984
0.582998
0.583011
0.583024
0.583024
0.583037
0.583051
0.583064
0.583077
0.583077
0.583091
0.583104
0.583117
0.583131
0.583131
0.583144
0.583157
0.583171
0.583184
0.583184
0.583198
0.583211
0.583225
0.583238
0.583238
0.583252
0.583265
0.583279
0.583292
0.583292
0.583306
0.58332
0.583333
0.583347
0.583347
0.58336
0.583374
0.583388
0.583401
0.583401
0.583415
0.583429
0.583443
0.583456
0.583456
0.58347
0.583484
0.583498
0.583511
0.583511
0.583525
0.583539
0.583553
0.583567
0.583567
0.58358
0.583594
0.583608
0.583622
0.583622
0.583636
0.58365
0.583664
0.583678
0.583678
0.583692
0.583706
0.58372
0.583735
0.583735
0.583749
0.583763
0.583777
0.583791
0.583791
0.583805
0.58382
0.583834
0.583848
0.583848
0.583862
0.583877
0.583891
0.583905
0.583905
0.58392
0.583934
0.583948
0.583963
0.583963
0.583977
0.583991
0.584006
0.58402
0.58402
0.584035
0.584049
0.584064
0.584078
0.584078
0.584093
0.584107
0.584122
0.584136
0.584136
0.584151
0.584165
0.58418
0.584195
0.584195
0.584209
0.584224
0.584239
0.584253
0.584253
0.584268
0.584283
0.584297
0.584312
0.584312
0.584327
0.584342
0.584357
0.584371
0.584371
0.584386
0.584401
0.584416
0.584431
0.584431
0.584446
0.584461
0.584476
0.584491
0.584491
0.584506
0.584521
0.584536
0.584551
0.584551
0.584566
0.584581
0.584596
0.584611
0.584611
0.584626
0.584641
0.584656
0.584672
0.584672
0.584687
0.584702
0.584717
0.584732
0.584732
0.584748
0.584763
0.584778
0.584794
0.584794
0.584809
0.584824
0.58484
0.584855
0.584855
0.58487
0.584886
0.584901
0.584916
0.584916
0.584932
0.584947
0.584963
0.584978
0.584978
0.584994
0.585009
0.585025
0.58504
0.58504
0.585056
0.585072
0.585088
0.585103
0.585103
0.585119
0.585135
0.585151
0.585166
0.585166
0.585182
0.585198
0.585214
0.58523
0.58523
0.585246
0.585262
0.585277
0.585293
0.585293
0.585309
0.585325
0.585341
0.585357
0.585357
0.585373
0.585389
0.585405
0.585421
0.585421
0.585438
0.585454
0.58547
0.585486
0.585486
0.585502
0.585518
0.585534
0.585551
0.585551
0.585567
0.585583
0.585599
0.585616
0.585616
0.585632
0.585648
0.585665
0.585681
0.585681
0.585697
0.585714
0.58573
0.585747
0.585747
0.585763
0.585779
0.585796
0.585812
0.585812
0.585829
0.585846
0.585862
0.585879
0.585879
0.585895
0.585912
0.585929
0.585945
0.585945
0.585962
0.585979
0.585995
0.586012
0.586012
0.586029
0.586046
0.586062
0.586079
0.586079
0.586096
0.586113
0.58613
0.586147
0.586147
0.586163
0.58618
0.586197
0.586214
0.586214
0.586231
0.586248
0.586265
0.586282
0.586282
0.586299
0.586316
0.586333
0.586351
0.586351
0.586368
0.586385
0.586402
0.586419
0.586419
0.586436
0.586453
0.586471
0.586488
0.586488
0.586505
0.586522
0.58654
0.586557
0.586557
0.586575
0.586592
0.58661
0.586627
0.586627
0.586645
0.586662
0.58668
0.586697
0.586697
0.586715
0.586733
0.58675
0.586768
0.586768
0.586786
0.586803
0.586821
0.586839
0.586839
0.586856
0.586874
0.586892
0.58691
0.58691
0.586928
0.586945
0.586963
0.586981
0.586981
0.586999
0.587017
0.587035
0.587053
0.587053
0.587071
0.587089
0.587107
0.587125
0.587125
0.587143
0.587161
0.587179
0.587197
0.587197
0.587215
0.587233
0.587252
0.58727
0.58727
0.587288
0.587306
0.587325
0.587343
0.587343
0.587361
0.587379
0.587398
0.587416
0.587416
0.587435
0.587453
0.587471
0.58749
0.58749
0.587508
0.587527
0.587545
0.587564
0.587564
0.587582
0.587601
0.58762
0.587638
0.587638
0.587657
0.587675
0.587694
0.587713
0.587713
0.587732
0.58775
0.587769
0.587788
0.587788
0.587807
0.587825
0.587844
0.587863
0.587863
0.587882
0.587901
0.58792
0.587939
0.587939
0.587958
0.587976
0.587995
0.588014
0.588014
0.588033
0.588053
0.588072
0.588091
0.588091
0.58811
0.588129
0.588148
0.588168
0.588168
0.588187
0.588206
0.588226
0.588245
0.588245
0.588265
0.588284
0.588303
0.588323
0.588323
0.588342
0.588362
0.588381
0.588401
0.588401
0.58842
0.58844
0.58846
0.588479
0.588479
0.588499
0.588519
0.588538
0.588558
0.588558
0.588578
0.588597
0.588617
0.588637
0.588637
0.588657
0.588677
0.588696
0.588716
0.588716
0.588736
0.588756
0.588776
0.588796
0.588796
0.588816
0.588836
0.588856
0.588876
0.588876
0.588896
0.588916
0.588936
0.588956
0.588956
0.588977
0.588997
0.589017
0.589037
0.589037
0.589057
0.589078
0.589098
0.589118
0.589118
0.589139
0.589159
0.589179
0.5892
0.5892
0.58922
0.589241
0.589261
0.589282
0.589282
0.589302
0.589323
0.589343
0.589364
0.589364
0.589385
0.589405
0.589426
0.589447
0.589447
0.589467
0.589488
0.589509
0.589529
0.589529
0.58955
0.589571
0.589592
0.589613
0.589613
0.589633
0.589654
0.589675
0.589696
0.589696
0.589717
0.589738
0.589759
0.58978
0.58978
0.589802
0.589823
0.589844
0.589865
0.589865
0.589887
0.589908
0.589929
0.58995
0.58995
0.589972
0.589993
0.590015
0.590036
0.590036
0.590057
0.590079
0.5901
0.590122
0.590122
0.590143
0.590165
0.590187
0.590208
0.590208
0.59023
0.590251
0.590273
0.590295
0.590295
0.590316
0.590338
0.59036
0.590382
0.590382
0.590403
0.590425
0.590447
0.590469
0.590469
0.590491
0.590513
0.590535
0.590557
0.590557
0.590579
0.590601
0.590623
0.590645
0.590645
0.590667
0.590689
0.590711
0.590733
0.590733
0.590756
0.590778
0.5908
0.590822
0.590822
0.590845
0.590867
0.590889
0.590912
0.590912
0.590934
0.590957
0.590979
0.591001
0.591001
0.591024
0.591046
0.591069
0.591092
0.591092
0.591114
0.591137
0.591159
0.591182
0.591182
0.591205
0.591227
0.59125
0.591273
0.591273
0.591296
0.591318
0.591341
0.591364
0.591364
0.591387
0.59141
0.591433
0.591456
0.591456
0.591479
0.591502
0.591525
0.591548
0.591548
0.591571
0.591594
0.591618
0.591641
0.591641
0.591664
0.591688
0.591711
0.591734
0.591734
0.591758
0.591781
0.591804
0.591828
0.591828
0.591851
0.591875
0.591898
0.591922
0.591922
0.591946
0.591969
0.591993
0.592016
0.592016
0.59204
0.592064
0.592088
0.592111
0.592111
0.592135
0.592159
0.592183
0.592207
0.592207
0.59223
0.592254
0.592278
0.592302
0.592302
0.592326
0.59235
0.592374
0.592398
0.592398
0.592422
0.592447
0.592471
0.592495
0.592495
0.592519
0.592543
0.592568
0.592592
0.592592
0.592616
0.59264
0.592665
0.592689
0.592689
0.592714
0.592738
0.592763
0.592787
0.592787
0.592812
0.592836
0.592861
0.592885
0.592885
0.59291
0.592934
0.592959
0.592984
0.592984
0.593009
0.593033
0.593058
0.593083
0.593083
0.593108
0.593132
0.593157
0.593182
0.593182
0.593207
0.593232
0.593257
0.593282
0.593282
0.593307
0.593332
0.593357
0.593383
0.593383
0.593408
0.593433
0.593458
0.593484
0.593484
0.593509
0.593535
0.59356
0.593586
0.593586
0.593611
0.593637
0.593662
0.593688
0.593688
0.593713
0.593739
0.593765
0.59379
0.59379
0.593816
0.593842
0.593867
0.593893
0.593893
0.593919
0.593945
0.593971
0.593996
0.593996
0.594022
0.594048
0.594074
0.5941
0.5941
0.594126
0.594152
0.594178
0.594204
0.594204
0.594231
0.594257
0.594283
0.594309
0.594309
0.594335
0.594362
0.594388
0.594414
0.594414
0.594441
0.594467
0.594493
0.59452
0.59452
0.594546
0.594573
0.594599
0.594626
0.594626
0.594653
0.594679
0.594706
0.594732
0.594732
0.594759
0.594786
0.594813
0.594839
0.594839
0.594866
0.594893
0.59492
0.594947
0.594947
0.594974
0.595001
0.595027
0.595054
0.595054
0.595081
0.595108
0.595136
0.595163
0.595163
0.59519
0.595217
0.595244
0.595271
0.595271
0.595299
0.595326
0.595354
0.595381
0.595381
0.595409
0.595436
0.595464
0.595491
0.595491
0.595519
0.595547
0.595574
0.595602
0.595602
0.59563
0.595658
0.595685
0.595713
0.595713
0.595741
0.595769
0.595797
0.595825
0.595825
0.595853
0.595881
0.595909
0.595937
0.595937
0.595965
0.595993
0.596021
0.596049
0.596049
0.596077
0.596106
0.596134
0.596162
0.596162
0.59619
0.596219
0.596247
0.596276
0.596276
0.596304
0.596332
0.596361
0.596389
0.596389
0.596418
0.596447
0.596475
0.596504
0.596504
0.596533
0.596561
0.59659
0.596619
0.596619
0.596648
0.596676
0.596705
0.596734
0.596734
0.596763
0.596792
0.596821
0.59685
0.59685
0.596879
0.596908
0.596937
0.596966
0.596966
0.596995
0.597024
0.597054
0.597083
0.597083
0.597112
0.597141
0.597171
0.5972
0.5972
0.597229
0.597259
0.597288
0.597318
0.597318
0.597348
0.597377
0.597407
0.597437
0.597437
0.597466
0.597496
0.597526
0.597556
0.597556
0.597586
0.597616
0.597646
0.597676
0.597676
0.597706
0.597736
0.597766
0.597796
0.597796
0.597826
0.597856
0.597887
0.597917
0.597917
0.597947
0.597977
0.598008
0.598038
0.598038
0.598068
0.598099
0.598129
0.59816
0.59816
0.59819
0.598221
0.598251
0.598282
0.598282
0.598313
0.598343
0.598374
0.598405
0.598405
0.598436
0.598466
0.598497
0.598528
0.598528
0.598559
0.59859
0.598621
0.598652
0.598652
0.598683
0.598714
0.598745
0.598776
0.598776
0.598807
0.598838
0.59887
0.598901
0.598901
0.598932
0.598963
0.598995
0.599026
0.599026
0.599057
0.599089
0.59912
0.599152
0.599152
0.599183
0.599215
0.599246
0.599278
0.599278
0.59931
0.599341
0.599373
0.599405
0.599405
0.599437
0.599469
0.599501
0.599533
0.599533
0.599565
0.599597
0.599629
0.599661
0.599661
0.599693
0.599725
0.599758
0.59979
0.59979
0.599822
0.599855
0.599887
0.59992
0.59992
0.599952
0.599984
0.600017
0.60005
0.60005
0.600082
0.600115
0.600147
0.60018
0.60018
0.600213
0.600245
0.600278
0.600311
0.600311
0.600344
0.600377
0.60041
0.600443
0.600443
0.600476
0.600509
0.600542
0.600575
0.600575
0.600608
0.600641
0.600674
0.600707
0.600707
0.600741
0.600774
0.600807
0.60084
0.60084
0.600874
0.600907
0.600941
0.600974
0.600974
0.601008
0.601041
0.601075
0.601108
0.601108
0.601142
0.601176
0.601209
0.601243
0.601243
0.601277
0.601311
0.601344
0.601378
0.601378
0.601412
0.601446
0.60148
0.601514
0.601514
0.601548
0.601582
0.601616
0.60165
0.60165
0.601685
0.601719
0.601753
0.601788
0.601788
0.601822
0.601857
0.601891
0.601926
0.601926
0.601961
0.601995
0.60203
0.602065
0.602065
0.602099
0.602134
0.602169
0.602204
0.602204
0.602239
0.602274
0.602309
0.602344
0.602344
0.602379
0.602414
0.602449
0.602484
0.602484
0.602519
0.602554
0.602589
0.602625
0.602625
0.60266
0.602695
0.602731
0.602766
0.602766
0.602801
0.602837
0.602872
0.602908
0.602908
0.602943
0.602979
0.603015
0.60305
0.60305
0.603086
0.603122
0.603158
0.603193
0.603193
0.603229
0.603265
0.603301
0.603337
0.603337
0.603373
0.603409
0.603445
0.603481
0.603481
0.603517
0.603553
0.60359
0.603626
0.603626
0.603662
0.603698
0.603735
0.603771
0.603771
0.603807
0.603844
0.60388
0.603917
0.603917
0.603953
0.60399
0.604027
0.604063
0.604063
0.6041
0.604137
0.604174
0.604211
0.604211
0.604248
0.604285
0.604322
0.604359
0.604359
0.604396
0.604434
0.604471
0.604508
0.604508
0.604545
0.604583
0.60462
0.604657
0.604657
0.604695
0.604732
0.60477
0.604807
0.604807
0.604845
0.604883
0.60492
0.604958
0.604958
0.604996
0.605033
0.605071
0.605109
0.605109
0.605147
0.605185
0.605223
0.605261
0.605261
0.605299
0.605337
0.605375
0.605413
0.605413
0.605451
0.605489
0.605527
0.605565
0.605565
0.605604
0.605642
0.60568
0.605719
0.605719
0.605757
0.605796
0.605834
0.605873
0.605873
0.605911
0.60595
0.605989
0.606027
0.606027
0.606066
0.606105
0.606143
0.606182
0.606182
0.606221
0.60626
0.606299
0.606338
0.606338
0.606377
0.606416
0.606455
0.606494
0.606494
0.606534
0.606573
0.606612
0.606652
0.606652
0.606691