<?xml version="1.0"?>
<VTKFile type="UnstructuredGrid" version="0.1" byte_order="LittleEndian">
<UnstructuredGrid>
<Piece NumberOfPoints="5000" NumberOfCells="4000">
<PointData Scalars="Reaction 0">
<DataArray type="Float32" Name="Reaction 0" format="ascii">
0.570868
0.570868
0.570868
0.570868
0.570868
0.570868
0.570868
0.570868
0.570868
0.570868
0.570868
0.570868
0.570868
0.570868
0.570868
0.570868
0.570868
0.570868
0.570868
0.570868
0.570868
0.570868
0.570868
0.570869
0.570869
0.570869
0.570869
0.570869
0.570869
0.570869
0.570869
0.570869
0.570869
0.570869
0.570869
0.570869
0.570869
0.570869
0.570869
0.570869
0.570869
0.57087
0.57087
0.57087
0.57087
0.57087
0.57087
0.57087
0.57087
0.57087
0.57087
0.57087
0.570871
0.570871
0.570871
0.570871
0.570871
0.570871
0.570871
0.570871
0.570871
0.570872
0.570872
0.570872
0.570872
0.570872
0.570872
0.570872
0.570872
0.570873
0.570873
0.570873
0.570873
0.570873
0.570873
0.570873
0.570873
0.570874
0.570874
0.570874
0.570874
0.570874
0.570874
0.570875
0.570875
0.570875
0.570875
0.570875
0.570875
0.570876
0.570876
0.570876
0.570876
0.570876
0.570877
0.570877
0.570877
0.570877
0.570877
0.570877
0.570877
0.570878
0.570878
0.570878
0.570878
0.570878
0.570879
0.570879
0.570879
0.570879
0.570879
0.57088
0.57088
0.57088
0.570881
0.570881
0.570881
0.570881
0.570881
0.570882
0.570882
0.570882
0.570882
0.570882
0.570883
0.570883
0.570883
0.570883
0.570884
0.570884
0.570884
0.570884
0.570885
0.570885
0.570885
0.570885
0.570886
0.570886
0.570886
0.570887
0.570887
0.570887
0.570887
0.570888
0.570888
0.570888
0.570888
0.570889
0.570889
0.570889
0.570889
0.57089
0.57089
0.57089
0.570891
0.570891
0.570891
0.570892
0.570892
0.570892
0.570892
0.570893
0.570893
0.570893
0.570894
0.570894
0.570894
0.570895
0.570895
0.570895
0.570895
0.570896
0.570896
0.570897
0.570897
0.570897
0.570897
0.570898
0.570898
0.570899
0.570899
0.570899
0.5709
0.5709
0.5709
0.5709
0.570901
0.570901
0.570902
0.570902
0.570902
0.570903
0.570903
0.570904
0.570904
0.570904
0.570905
0.570905
0.570905
0.570906
0.570906
0.570906
0.570907
0.570907
0.570908
0.570908
0.570908
0.570909
0.570909
0.57091
0.57091
0.57091
0.570911
0.570911
0.570912
0.570912
0.570912
0.570913
0.570913
0.570914
0.570914
0.570914
0.570915
0.570916
0.570916
0.570916
0.570917
0.570917
0.570918
0.570918
0.570918
0.570919
0.570919
0.57092
0.57092
0.57092
0.570921
0.570922
0.570922
0.570923
0.570923
0.570923
0.570924
0.570924
0.570925
0.570925
0.570926
0.570926
0.570927
0.570927
0.570927
0.570928
0.570929
0.570929
0.57093
0.57093
0.57093
0.570931
0.570932
0.570932
0.570932
0.570933
0.570934
0.570934
0.570935
0.570935
0.570935
0.570936
0.570937
0.570937
0.570937
0.570938
0.570939
0.570939
0.57094
0.57094
0.570941
0.570941
0.570942
0.570943
0.570943
0.570943
0.570944
0.570945
0.570945
0.570945
0.570946
0.570947
0.570947
0.570948
0.570948
0.570949
0.570949
0.57095
0.570951
0.570951
0.570952
0.570952
0.570953
0.570954
0.570954
0.570954
0.570955
0.570956
0.570957
0.570957
0.570957
0.570958
0.570959
0.57096
0.57096
0.57096
0.570961
0.570962
0.570963
0.570963
0.570963
0.570964
0.570965
0.570966
0.570966
0.570966
0.570967
0.570968
0.570969
0.570969
0.570969
0.57097
0.570971
0.570972
0.570972
0.570973
0.570973
0.570974
0.570975
0.570975
0.570976
0.570977
0.570977
0.570978
0.570978
0.570979
0.57098
0.570981
0.570982
0.570982
0.570982
0.570983
0.570984
0.570985
0.570985
0.570986
0.570987
0.570987
0.570988
0.570988
0.570989
0.57099
0.570991
0.570992
0.570992
0.570993
0.570993
0.570994
0.570995
0.570995
0.570996
0.570997
0.570998
0.570999
0.570999
0.570999
0.571
0.571001
0.571002
0.571002
0.571003
0.571004
0.571005
0.571006
0.571006
0.571007
0.571008
0.571009
0.57101
0.57101
0.571011
0.571011
0.571012
0.571013
0.571013
0.571014
0.571015
0.571016
0.571017
0.571017
0.571018
0.571019
0.57102
0.571021
0.571021
0.571022
0.571023
0.571024
0.571025
0.571025
0.571026
0.571027
0.571028
0.571029
0.571029
0.57103
0.571031
0.571032
0.571033
0.571033
0.571034
0.571035
0.571036
0.571037
0.571037
0.571038
0.571039
0.57104
0.571041
0.571041
0.571042
0.571043
0.571044
0.571045
0.571045
0.571046
0.571047
0.571048
0.571049
0.571049
0.57105
0.571051
0.571052
0.571053
0.571053
0.571055
0.571056
0.571057
0.571058
0.571058
0.571059
0.57106
0.571061
0.571062
0.571062
0.571063
0.571064
0.571065
0.571067
0.571067
0.571068
0.571069
0.57107
0.571071
0.571071
0.571072
0.571073
0.571074
0.571075
0.571075
0.571077
0.571078
0.571079
0.57108
0.57108
0.571081
0.571082
0.571083
0.571085
0.571085
0.571086
0.571087
0.571088
0.571089
0.571089
0.57109
0.571092
0.571093
0.571094
0.571094
0.571095
0.571096
0.571097
0.571099
0.571099
0.5711
0.571101
0.571102
0.571103
0.571103
0.571105
0.571106
0.571107
0.571108
0.571108
0.57111
0.571111
0.571112
0.571113
0.571113
0.571114
0.571116
0.571117
0.571118
0.571118
0.571119
0.571121
0.571122
0.571123
0.571123
0.571124
0.571126
0.571127
0.571128
0.571128
0.571129
0.571131
0.571132
0.571133
0.571133
0.571135
0.571136
0.571137
0.571138
0.571138
0.57114
0.571141
0.571142
0.571144
0.571144
0.571145
0.571146
0.571148
0.571149
0.571149
0.57115
0.571152
0.571153
0.571154
0.571154
0.571156
0.571157
0.571158
0.57116
0.57116
0.571161
0.571162
0.571164
0.571165
0.571165
0.571166
0.571168
0.571169
0.571171
0.571171
0.571172
0.571173
0.571175
0.571176
0.571176
0.571177
0.571179
0.57118
0.571182
0.571182
0.571183
0.571184
0.571186
0.571187
0.571187
0.571189
0.57119
0.571192
0.571193
0.571193
0.571194
0.571196
0.571197
0.571199
0.571199
0.5712
0.571202
0.571203
0.571204
0.571204
0.571206
0.571207
0.571209
0.57121
0.57121
0.571212
0.571213
0.571215
0.571216
0.571216
0.571218
0.571219
0.571221
0.571222
0.571222
0.571224
0.571225
0.571227
0.571228
0.571228
0.57123
0.571231
0.571233
0.571234
0.571234
0.571236
0.571237
0.571239
0.57124
0.57124
0.571242
0.571243
0.571245
0.571247
0.571247
0.571248
0.57125
0.571251
0.571253
0.571253
0.571254
0.571256
0.571257
0.571259
0.571259
0.571261
0.571262
0.571264
0.571265
0.571265
0.571267
0.571269
0.57127
0.571272
0.571272
0.571273
0.571275
0.571277
0.571278
0.571278
0.57128
0.571281
0.571283
0.571285
0.571285
0.571286
0.571288
0.57129
0.571291
0.571291
0.571293
0.571294
0.571296
0.571298
0.571298
0.571299
0.571301
0.571303
0.571304
0.571304
0.571306
0.571308
0.571309
0.571311
0.571311
0.571313
0.571315
0.571316
0.571318
0.571318
0.57132
0.571321
0.571323
0.571325
0.571325
0.571326
0.571328
0.57133
0.571332
0.571332
0.571333
0.571335
0.571337
0.571339
0.571339
0.57134
0.571342
0.571344
0.571346
0.571346
0.571347
0.571349
0.571351
0.571353
0.571353
0.571354
0.571356
0.571358
0.57136
0.57136
0.571361
0.571363
0.571365
0.571367
0.571367
0.571369
0.57137
0.571372
0.571374
0.571374
0.571376
0.571378
0.571379
0.571381
0.571381
0.571383
0.571385
0.571387
0.571389
0.571389
0.57139
0.571392
0.571394
0.571396
0.571396
0.571398
0.5714
0.571402
0.571403
0.571403
0.571405
0.571407
0.571409
0.571411
0.571411
0.571413
0.571415
0.571417
0.571418
0.571418
0.57142
0.571422
0.571424
0.571426
0.571426
0.571428
0.57143
0.571432
0.571434
0.571434
0.571436
0.571438
0.57144
0.571441
0.571441
0.571443
0.571445
0.571447
0.571449
0.571449
0.571451
0.571453
0.571455
0.571457
0.571457
0.571459
0.571461
0.571463
0.571465
0.571465
0.571467
0.571469
0.571471
0.571473
0.571473
0.571475
0.571477
0.571479
0.571481
0.571481
0.571483
0.571485
0.571487
0.571489
0.571489
0.571491
0.571493
0.571495
0.571497
0.571497
0.571499
0.571501
0.571503
0.571505
0.571505
0.571507
0.571509
0.571511
0.571513
0.571513
0.571516
0.571518
0.57152
0.571522
0.571522
0.571524
0.571526
0.571528
0.57153
0.57153
0.571532
0.571534
0.571537
0.571539
0.571539
0.571541
0.571543
0.571545
0.571547
0.571547
0.571549
0.571551
0.571554
0.571556
0.571556
0.571558
0.57156
0.571562
0.571564
0.571564
0.571566
0.571569
0.571571
0.571573
0.571573
0.571575
0.571577
0.571579
0.571582
0.571582
0.571584
0.571586
0.571588
0.57159
0.57159
0.571593
0.571595
0.571597
0.571599
0.571599
0.571601
0.571604
0.571606
0.571608
0.571608
0.57161
0.571613
0.571615
0.571617
0.571617
0.571619
0.571622
0.571624
0.571626
0.571626
0.571628
0.571631
0.571633
0.571635
0.571635
0.571637
0.57164
0.571642
0.571644
0.571644
0.571647
0.571649
0.571651
0.571654
0.571654
0.571656
0.571658
0.57166
0.571663
0.571663
0.571665
0.571667
0.57167
0.571672
0.571672
0.571674
0.571677
0.571679
0.571681
0.571681
0.571684
0.571686
0.571689
0.571691
0.571691
0.571693
0.571696
0.571698
0.5717
0.5717
0.571703
0.571705
0.571708
0.57171
0.57171
0.571712
0.571715
0.571717
0.57172
0.57172
0.571722
0.571724
0.571727
0.571729
0.571729
0.571732
0.571734
0.571737
0.571739
0.571739
0.571742
0.571744
0.571746
0.571749
0.571749
0.571751
0.571754
0.571756
0.571759
0.571759
0.571761
0.571764
0.571766
0.571769
0.571769
0.571771
0.571774
0.571776
0.571779
0.571779
0.571781
0.571784
0.571786
0.571789
0.571789
0.571791
0.571794
0.571796
0.571799
0.571799
0.571802
0.571804
0.571807
0.571809
0.571809
0.571812
0.571814
0.571817
0.571819
0.571819
0.571822
0.571825
0.571827
0.57183
0.57183
0.571832
0.571835
0.571838
0.57184
0.57184
0.571843
0.571845
0.571848
0.571851
0.571851
0.571853
0.571856
0.571859
0.571861
0.571861
0.571864
0.571866
0.571869
0.571872
0.571872
0.571874
0.571877
0.57188
0.571882
0.571882
0.571885
0.571888
0.57189
0.571893
0.571893
0.571896
0.571898
0.571901
0.571904
0.571904
0.571907
0.571909
0.571912
0.571915
0.571915
0.571917
0.57192
0.571923
0.571926
0.571926
0.571928
0.571931
0.571934
0.571937
0.571937
0.571939
0.571942
0.571945
0.571948
0.571948
0.57195
0.571953
0.571956
0.571959
0.571959
0.571962
0.571964
0.571967
0.57197
0.57197
0.571973
0.571976
0.571978
0.571981
0.571981
0.571984
0.571987
0.57199
0.571992
0.571992
0.571995
0.571998
0.572001
0.572004
0.572004
0.572007
0.572009
0.572012
0.572015
0.572015
0.572018
0.572021
0.572024
0.572027
0.572027
0.57203
0.572032
0.572035
0.572038
0.572038
0.572041
0.572044
0.572047
0.57205
0.57205
0.572053
0.572056
0.572059
0.572062
0.572062
0.572065
0.572068
0.572071
0.572074
0.572074
0.572077
0.57208
0.572083
0.572086
0.572086
0.572089
0.572091
0.572094
0.572097
0.572097
0.5721
0.572103
0.572106
0.572109
0.572109
0.572112
0.572115
0.572119
0.572122
0.572122
0.572125
0.572128
0.572131
0.572134
0.572134
0.572137
0.57214
0.572143
0.572146
0.572146
0.572149
0.572152
0.572155
0.572158
0.572158
0.572161
0.572164
0.572167
0.572171
0.572171
0.572174
0.572177
0.57218
0.572183
0.572183
0.572186
0.572189
0.572192
0.572195
0.572195
0.572199
0.572202
0.572205
0.572208
0.572208
0.572211
0.572214
0.572217
0.572221
0.572221
0.572224
0.572227
0.57223
0.572233
0.572233
0.572237
0.57224
0.572243
0.572246
0.572246
0.572249
0.572253
0.572256
0.572259
0.572259
0.572262
0.572265
0.572269
0.572272
0.572272
0.572275
0.572278
0.572282
0.572285
0.572285
0.572288
0.572291
0.572295
0.572298
0.572298
0.572301
0.572305
0.572308
0.572311
0.572311
0.572314
0.572318
0.572321
0.572324
0.572324
0.572328
0.572331
0.572334
0.572338
0.572338
0.572341
0.572344
0.572348
0.572351
0.572351
0.572354
0.572358
0.572361
0.572364
0.572364
0.572368
0.572371
0.572375
0.572378
0.572378
0.572381
0.572385
0.572388
0.572392
0.572392
0.572395
0.572398
0.572402
0.572405
0.572405
0.572409
0.572412
0.572416
0.572419
0.572419
0.572422
0.572426
0.572429
0.572433
0.572433
0.572436
0.57244
0.572443
0.572447
0.572447
0.57245
0.572454
0.572457
0.572461
0.572461
0.572464
0.572468
0.572471
0.572475
0.572475
0.572478
0.572482
0.572485
0.572489
0.572489
0.572492
0.572496
0.572499
0.572503
0.572503
0.572507
0.57251
0.572514
0.572517
0.572517
0.572521
0.572524
0.572528
0.572532
0.572532
0.572535
0.572539
0.572542
0.572546
0.572546
0.57255
0.572553
0.572557
0.57256
0.57256
0.572564
0.572568
0.572571
0.572575
0.572575
0.572578
0.572582
0.572586
0.572589
0.572589
0.572593
0.572597
0.572601
0.572604
0.572604
0.572608
0.572612
0.572616
0.572619
0.572619
0.572623
0.572627
0.572631
0.572634
0.572634
0.572638
0.572642
0.572646
0.572649
0.572649
0.572653
0.572657
0.572661
0.572664
0.572664
0.572668
0.572672
0.572676
0.572679
0.572679
0.572683
0.572687
0.572691
0.572695
0.572695
0.572699
0.572702
0.572706
0.57271
0.57271
0.572714
0.572718
0.572722
0.572725
0.572725
0.572729
0.572733
0.572737
0.572741
0.572741
0.572745
0.572749
0.572753
0.572756
0.572756
0.57276
0.572764
0.572768
0.572772
0.572772
0.572776
0.57278
0.572784
0.572788
0.572788
0.572792
0.572796
0.5728
0.572804
0.572804
0.572808
0.572812
0.572815
0.572819
0.572819
0.572823
0.572827
0.572831
0.572835
0.572835
0.572839
0.572843
0.572847
0.572851
0.572851
0.572855
0.57286
0.572864
0.572868
0.572868
0.572872
0.572876
0.57288
0.572884
0.572884
0.572888
0.572892
0.572896
0.5729
0.5729
0.572904
0.572908
0.572912
0.572917
0.572917
0.572921
0.572925
0.572929
0.572933
0.572933
0.572937
0.572941
0.572945
0.57295
0.57295
0.572954
0.572958
0.572962
0.572966
0.572966
0.57297
0.572975
0.572979
0.572983
0.572983
0.572987
0.572991
0.572996
0.573
0.573
0.573004
0.573008
0.573012
0.573017
0.573017
0.573021
0.573025
0.573029
0.573034
0.573034
0.573038
0.573042
0.573046
0.573051
0.573051
0.573055
0.573059
0.573064
0.573068
0.573068
0.573072
0.573076
0.573081
0.573085
0.573085
0.573089
0.573094
0.573098
0.573102
0.573102
0.573107
0.573111
0.573115
0.57312
0.57312
0.573124
0.573129
0.573133
0.573137
0.573137
0.573142
0.573146
0.57315
0.573155
0.573155
0.573159
0.573164
0.573168
0.573172
0.573172
0.573177
0.573181
0.573186
0.57319
0.57319
0.573195
0.573199
0.573204
0.573208
0.573208
0.573213
0.573217
0.573222
0.573226
0.573226
0.573231
0.573235
0.57324
0.573244
0.573244
0.573249
0.573253
0.573258
0.573263
0.573263
0.573267
0.573272
0.573276
0.573281
0.573281
0.573285
0.57329
0.573295
0.573299
0.573299
0.573304
0.573308
0.573313
0.573318
0.573318
0.573322
0.573327
0.573332
0.573336
0.573336
0.573341
0.573345
0.57335
0.573355
0.573355
0.573359
0.573364
0.573369
0.573374
0.573374
0.573378
0.573383
0.573388
0.573392
0.573392
0.573397
0.573402
0.573406
0.573411
0.573411
0.573416
0.573421
0.573425
0.57343
0.57343
0.573435
0.57344
0.573445
0.573449
0.573449
0.573454
0.573459
0.573464
0.573469
0.573469
0.573473
0.573478
0.573483
0.573488
0.573488
0.573493
0.573497
0.573502
0.573507
0.573507
0.573512
0.573517
0.573522
0.573527
0.573527
0.573532
0.573536
0.573541
0.573546
0.573546
0.573551
0.573556
0.573561
0.573566
0.573566
0.573571
0.573576
0.573581
0.573586
0.573586
0.573591
0.573596
0.573601
0.573606
0.573606
0.573611
0.573616
0.573621
0.573626
0.573626
0.573631
0.573636
0.573641
0.573646
0.573646
0.573651
0.573656
0.573661
0.573666
0.573666
0.573671
0.573676
0.573681
0.573686
0.573686
0.573691
0.573696
0.573701
0.573706
0.573706
0.573712
0.573717
0.573722
0.573727
0.573727
0.573732
0.573737
0.573742
0.573748
0.573748
0.573753
0.573758
0.573763
0.573768
0.573768
0.573773
0.573779
0.573784
0.573789
0.573789
0.573794
0.573799
0.573804
0.57381
0.57381
0.573815
0.57382
0.573825
0.57383
0.57383
0.573836
0.573841
0.573846
0.573852
0.573852
0.573857
0.573862
0.573868
0.573873
0.573873
0.573878
0.573884
0.573889
0.573894
0.573894
0.5739
0.573905
0.573911
0.573916
0.573916
0.573921
0.573927
0.573932
0.573937
0.573937
0.573943
0.573948
0.573954
0.573959
0.573959
0.573965
0.57397
0.573975
0.573981
0.573981
0.573986
0.573992
0.573997
0.574003
0.574003
0.574008
0.574014
0.574019
0.574025
0.574025
0.57403
0.574036
0.574041
0.574047
0.574047
0.574052
0.574058
0.574063
0.574069
0.574069
0.574074
0.57408
0.574086
0.574091
0.574091
0.574097
0.574102
0.574108
0.574113
0.574113
0.574119
0.574125
0.57413
0.574136
0.574136
0.574142
0.574147
0.574153
0.574159
0.574159
0.574164
0.57417
0.574176
0.574181
0.574181
0.574187
0.574193
0.574198
0.574204
0.574204
0.57421
0.574216
0.574221
0.574227
0.574227
0.574233
0.574239
0.574244
0.57425
0.57425
0.574256
0.574262
0.574267
0.574273
0.574273
0.574279
0.574285
0.574291
0.574297
0.574297
0.574302
0.574308
0.574314
0.57432
0.57432
0.574326
0.574332
0.574338
0.574343
0.574343
0.574349
0.574355
0.574361
0.574367
0.574367
0.574373
0.574379
0.574385
0.574391
0.574391
0.574397
0.574403
0.574409
0.574415
0.574415
0.574421
0.574427
0.574433
0.574439
0.574439
0.574445
0.574451
0.574457
0.574463
0.574463
0.574469
0.574475
0.574481
0.574487
0.574487
0.574493
0.574499
0.574505
0.574511
0.574511
0.574517
0.574523
0.574529
0.574535
0.574535
0.574541
0.574548
0.574554
0.57456
0.57456
0.574566
0.574572
0.574579
0.574585
0.574585
0.574591
0.574597
0.574603
0.57461
0.57461
0.574616
0.574622
0.574628
0.574635
0.574635
0.574641
0.574647
0.574653
0.57466
0.57466
0.574666
0.574672
0.574679
0.574685
0.574685
0.574691
0.574697
0.574704
0.57471
0.57471
0.574716
0.574723
0.574729
0.574736
0.574736
0.574742
0.574748
0.574755
0.574761
0.574761
0.574767
0.574774
0.57478
0.574787
0.574787
0.574793
0.5748
0.574806
0.574812
0.574812
0.574819
0.574825
0.574832
0.574838
0.574838
0.574845
0.574851
0.574858
0.574864
0.574864
0.574871
0.574877
0.574884
0.574891
0.574891
0.574897
0.574904
0.57491
0.574917
0.574917
0.574923
0.57493
0.574937
0.574943
0.574943
0.57495
0.574957
0.574963
0.57497
0.57497
0.574976
0.574983
0.57499
0.574996
0.574996
0.575003
0.57501
0.575017
0.575023
0.575023
0.57503
0.575037
0.575043
0.57505
0.57505
0.575057
0.575064
0.57507
0.575077
0.575077
0.575084
0.575091
0.575098
0.575104
0.575104
0.575111
0.575118
0.575125
0.575132
0.575132
0.575139
0.575145
0.575152
0.575159
0.575159
0.575166
0.575173
0.57518
0.575187
0.575187
0.575194
0.5752
0.575207
0.575214
0.575214
0.575221
0.575228
0.575235
0.575242
0.575242
0.575249
0.575256
0.575263
0.57527
0.57527
0.575277
0.575284
0.575291
0.575298
0.575298
0.575305
0.575312
0.575319
0.575327
0.575327
0.575334
0.575341
0.575348
0.575355
0.575355
0.575362
0.575369
0.575376
0.575384
0.575384
0.575391
0.575398
0.575405
0.575412
0.575412
0.575419
0.575427
0.575434
0.575441
0.575441
0.575448
0.575456
0.575463
0.57547
0.57547
0.575477
0.575485
0.575492
0.575499
0.575499
0.575506
0.575514
0.575521
0.575528
0.575528
0.575536
0.575543
0.57555
0.575558
0.575558
0.575565
0.575572
0.57558
0.575587
0.575587
0.575595
0.575602
0.575609
0.575617
0.575617
0.575624
0.575632
0.575639
0.575647
0.575647
0.575654
0.575662
0.575669
0.575677
0.575677
0.575684
0.575692
0.575699
0.575707
0.575707
0.575714
0.575722
0.575729
0.575737
0.575737
0.575745
0.575752
0.57576
0.575767
0.575767
0.575775
0.575783
0.57579
0.575798
0.575798
0.575805
0.575813
0.575821
0.575829
0.575829
0.575836
0.575844
0.575852
0.575859
0.575859
0.575867
0.575875
0.575882
0.57589
0.57589
0.575898
0.575906
0.575914
0.575921
0.575921
0.575929
0.575937
0.575945
0.575952
0.575952
0.57596
0.575968
0.575976
0.575984
0.575984
0.575992
0.575999
0.576007
0.576015
0.576015
0.576023
0.576031
0.576039
0.576047
0.576047
0.576055
0.576063
0.576071
0.576079
0.576079
0.576087
0.576095
0.576103
0.576111
0.576111
0.576119
0.576127
0.576135
0.576143
0.576143
0.576151
0.576159
0.576168
0.576176
0.576176
0.576184
0.576192
0.5762
0.576208
0.576208
0.576216
0.576225
0.576233
0.576241
0.576241
0.576249
0.576257
0.576265
0.576274
0.576274
0.576282
0.57629
0.576298
0.576307
0.576307
0.576315
0.576323
0.576331
0.57634
0.57634
0.576348
0.576356
0.576365
0.576373
0.576373
0.576381
0.57639
0.576398
0.576406
0.576406
0.576415
0.576423
0.576432
0.57644
0.57644
0.576449
0.576457
0.576465
0.576474
0.576474
0.576482
0.576491
0.576499
0.576508
0.576508
0.576516
0.576525
0.576533
0.576542
0.576542
0.57655
0.576559
0.576568
0.576576
0.576576
0.576585
0.576593
0.576602
0.576611
0.576611
0.576619
0.576628
0.576636
0.576645
0.576645
0.576654
0.576662
0.576671
0.57668
0.57668
0.576689
0.576697
0.576706
0.576715
0.576715
0.576723
0.576732
0.576741
0.57675
0.57675
0.576759
0.576767
0.576776
0.576785
0.576785
0.576794
0.576803
0.576811
0.57682
0.57682
0.576829
0.576838
0.576847
0.576856
0.576856
0.576864
0.576873
0.576882
0.576891
0.576891
0.5769
0.576909
0.576918
0.576927
0.576927
0.576937
0.576946
0.576955
0.576964
0.576964
0.576973
0.576982
0.576991
0.577
0.577
0.577009
0.577018
0.577027
0.577037
0.577037
0.577046
0.577055
0.577064
0.577073
0.577073
0.577082
0.577092
0.577101
0.57711
0.57711
0.577119
0.577129
0.577138
0.577147
0.577147
0.577156
0.577166
0.577175
0.577184
0.577184
0.577194
0.577203
0.577212
0.577222
0.577222
0.577231
0.57724
0.57725
0.577259
0.577259
0.577269
0.577278
0.577287
0.577297
0.577297
0.577306
0.577316
0.577325
0.577335
0.577335
0.577344
0.577354
0.577363
0.577373
0.577373
0.577382
0.577392
0.577402
0.577411
0.577411
0.577421
0.57743
0.57744
0.57745
0.57745
0.577459
0.577469
0.577479
0.577488
0.577488
0.577498
0.577508
0.577517
0.577527
0.577527
0.577537
0.577546
0.577556
0.577566
0.577566
0.577576
0.577586
0.577595
0.577605
0.577605
0.577615
0.577625
0.577635
0.577644
0.577644
0.577654
0.577664
0.577674
0.577684
0.577684
0.577694
0.577704
0.577713
0.577723
0.577723
0.577733
0.577743
0.577753
0.577763
0.577763
0.577773
0.577783
0.577793
0.577804
0.577804
0.577814
0.577824
0.577834
0.577844
0.577844
0.577854
0.577864
0.577875
0.577885
0.577885
0.577895
0.577905
0.577915
0.577926
0.577926
0.577936
0.577946
0.577956
0.577967
0.577967
0.577977
0.577987
0.577997
0.578008
0.578008
0.578018
0.578028
0.578039
0.578049
0.578049
0.578059
0.57807
0.57808
0.578091
0.578091
0.578101
0.578111
0.578122
0.578132
0.578132
0.578143
0.578153
0.578164
0.578174
0.578174
0.578185
0.578195
0.578206
0.578216
0.578216
0.578227
0.578237
0.578248
0.578259
0.578259
0.578269
0.57828
0.578291
0.578301
0.578301
0.578312
0.578323
0.578333
0.578344
0.578344
0.578355
0.578365
0.578376
0.578387
0.578387
0.578398
0.578408
0.578419
0.57843
0.57843
0.578441
0.578452
0.578463
0.578473
0.578473
0.578484
0.578495
0.578506
0.578517
0.578517
0.578528
0.578539
0.57855
0.578561
0.578561
0.578572
0.578583
0.578594
0.578605
0.578605
0.578616
0.578627
0.578638
0.578649
0.578649
0.57866
0.578671
0.578682
0.578693
0.578693
0.578704
0.578715
0.578726
0.578738
0.578738
0.578749
0.57876
0.578771
0.578783
0.578783
0.578794
0.578805
0.578817
0.578828
0.578828
0.578839
0.578851
0.578862
0.578873
0.578873
0.578885
0.578896
0.578907
0.578919
0.578919
0.57893
0.578942
0.578953
0.578965
0.578965
0.578976
0.578988
0.578999
0.579011
0.579011
0.579022
0.579034
0.579045
0.579057
0.579057
0.579068
0.57908
0.579092
0.579103
0.579103
0.579115
0.579126
0.579138
0.57915
0.57915
0.579162
0.579173
0.579185
0.579197
0.579197
0.579208
0.57922
0.579232
0.579244
0.579244
0.579256
0.579267
0.579279
0.579291
0.579291
0.579303
0.579315
0.579327
0.579339
0.579339
0.579351
0.579363
0.579374
0.579386
0.579386
0.579398
0.57941
0.579422
0.579434
0.579434
0.579446
0.579459
0.579471
0.579483
0.579483
0.579495
0.579507
0.579519
0.579531
0.579531
0.579543
0.579555
0.579568
0.57958
0.57958
0.579592
0.579604
0.579616
0.579628
0.579628
0.579641
0.579653
0.579665
0.579677
0.579677
0.57969
0.579702
0.579714
0.579727
0.579727
0.579739
0.579752
0.579764
0.579777
0.579777
0.579789
0.579802
0.579814
0.579827
0.579827
0.579839
0.579852
0.579865
0.579877
0.579877
0.57989
0.579902
0.579915
0.579928
0.579928
0.57994
0.579953
0.579966
0.579978
0.579978
0.579991
0.580004
0.580016
0.580029
0.580029
0.580042
0.580055
0.580068
0.58008
0.58008
0.580093
0.580106
0.580119
0.580132
0.580132
0.580145
0.580158
0.58017
0.580183
0.580183
0.580196
0.580209
0.580222
0.580235
0.580235
0.580248
0.580261
0.580274
0.580287
0.580287
0.580301
0.580314
0.580327
0.58034
0.58034
0.580353
0.580366
0.580379
0.580393
0.580393
0.580406
0.580419
0.580432
0.580445
0.580445
0.580459
0.580472
0.580485
0.580499
0.580499
0.580512
0.580525
0.580539
0.580552
0.580552
0.580565
0.580579
0.580592
0.580606
0.580606
0.580619
0.580633
0.580646
0.580659
0.580659
0.580673
0.580686
0.5807
0.580713
0.580713
0.580727
0.580741
0.580754
0.580768
0.580768
0.580781
0.580795
0.580809
0.580823
0.580823
0.580836
0.58085
0.580864
0.580878
0.580878
0.580892
0.580906
0.580919
0.580933
0.580933
0.580947
0.580961
0.580975
0.580989
0.580989
0.581003
0.581017
0.581031
0.581045
0.581045
0.581059
0.581073
0.581087
0.581101
0.581101
0.581115
0.581129
0.581143
0.581157
0.581157
0.581172
0.581186
0.5812
0.581214
0.581214
0.581228
0.581243
0.581257
0.581271
0.581271
0.581285
0.5813
0.581314
0.581328
0.581328
0.581343
0.581357
0.581371
0.581386
0.581386
0.5814
0.581415
0.581429
0.581444
0.581444
0.581458
0.581473
0.581487
0.581502
0.581502
0.581516
0.581531
0.581545
0.58156
0.58156
0.581575
0.581589
0.581604
0.581619
0.581619
0.581633
0.581648
0.581663
0.581677
0.581677
0.581692
0.581707
0.581722
0.581737
0.581737
0.581751
0.581766
0.581781
0.581796
0.581796
0.581811
0.581826
0.581841
0.581856
0.581856
0.58187
0.581885
0.5819
0.581915
0.581915
0.58193
0.581946
0.581961
0.581976
0.581976
0.581991
0.582006
0.582022
0.582037
0.582037
0.582052
0.582067
0.582083
0.582098
0.582098
0.582113
0.582129
0.582144
0.582159
0.582159
0.582175
0.58219
0.582206
0.582221
0.582221
0.582237
0.582252
0.582268
0.582283
0.582283
0.582299
0.582314
0.58233
0.582345
0.582345
0.582361
0.582376
0.582392
0.582408
0.582408
0.582423
0.582439
0.582455
0.582471
0.582471
0.582486
0.582502
0.582518
0.582534
0.582534
0.582549
0.582565
0.582581
0.582597
0.582597
0.582613
0.582629
0.582645
0.582661
0.582661
0.582677
0.582693
0.582709
0.582725
0.582725
0.582741
0.582757
0.582773
0.582789
0.582789
0.582805
0.582821
0.582838
0.582854
0.582854
0.58287
0.582886
0.582902
0.582919
0.582919
0.582935
0.582951
0.582968
0.582984
0.582984
0.583
0.583017
0.583033
0.583049
0.583049
0.583066
0.583082
0.583099
0.583115
0.583115
0.583132
0.583148
0.583165
0.583181
0.583181
0.583198
0.583215
0.583232
0.583248
0.583248
0.583265
0.583282
0.583299
0.583315
0.583315
0.583332
0.583349
0.583366
0.583383
0.583383
0.5834
0.583417
0.583434
0.583451
0.583451
0.583468
0.583484
0.583502
0.583519
0.583519
0.583536
0.583553
0.58357
0.583587
0.583587
0.583604
0.583621
0.583638
0.583655
0.583655
0.583673
0.58369
0.583707
0.583724
0.583724
0.583742
0.583759
0.583776
0.583794
0.583794
0.583811
0.583829
0.583846
0.583863
0.583863
0.583881
0.583898
0.583916
0.583933
0.583933
0.583951
0.583968
0.583986
0.584004
0.584004
0.584021
0.584039
0.584057
0.584074
0.584074
0.584092
0.58411
0.584127
0.584145
0.584145
0.584163
0.584181
0.584199
0.584216
0.584216
0.584234
0.584252
0.58427
0.584288
0.584288
0.584306
0.584324
0.584342
0.58436
0.58436
0.584378
0.584396
0.584414
0.584432
0.584432
0.58445
0.584468
0.584487
0.584505
0.584505
0.584523
0.584542
0.58456
0.584578
0.584578
0.584597
0.584615
0.584634
0.584652
0.584652
0.584671
0.584689
0.584708
0.584726
0.584726
0.584745
0.584763
0.584782
0.584801
0.584801
0.584819
0.584838
0.584856
0.584875
0.584875
0.584894
0.584913
0.584931
0.58495
0.58495
0.584969
0.584988
0.585007
0.585026
0.585026
0.585044
0.585063
0.585082
0.585101
0.585101
0.58512
0.585139
0.585158
0.585177
0.585177
0.585196
0.585216
0.585235
0.585254
0.585254
0.585273
0.585292
0.585311
0.585331
0.585331
0.58535
0.585369
0.585388
0.585408
0.585408
0.585427
0.585447
0.585466
0.585485
0.585485
0.585505
0.585524
0.585544
0.585563
0.585563
0.585583
0.585602
0.585622
0.585641
0.585641
0.585661
0.585681
0.5857
0.58572
0.58572
0.58574
0.585759
0.585779
0.585799
0.585799
0.585819
0.585839
0.585859
0.585879
0.585879
0.585899
0.585919
0.585939
0.585959
0.585959
0.585979
0.585999
0.586019
0.586039
0.586039
0.58606
0.58608
0.5861
0.58612
0.58612
0.586141
0.586161
0.586181
0.586201
0.586201
0.586222
0.586242
0.586263
0.586283
0.586283
0.586304
0.586324
0.586344
0.586365
0.586365
0.586386
0.586406
0.586427
0.586447
0.586447
0.586468
0.586489
0.586509
0.58653
0.58653
0.586551
0.586572
0.586592
0.586613
0.586613
0.586634
0.586655
0.586676
0.586697
0.586697
0.586718
0.586739
0.58676
0.586781
0.586781
0.586802
0.586823
0.586844
0.586865
0.586865
0.586886
0.586907
0.586929
0.58695
0.58695
0.586971
0.586992
0.587014
0.587035
0.587035
0.587056
0.587077
0.587099
0.58712
0.58712
0.587142
0.587163
0.587185
0.587206
0.587206
0.587228
0.587249
0.587271
0.587293
0.587293
0.587314
0.587336
0.587358
0.58738
0.58738
0.587402
0.587424
0.587446
0.587467
0.587467
0.587489
0.587511
0.587533
0.587555
0.587555
0.587578
0.5876
0.587622
0.587644
0.587644
0.587666
0.587688
0.58771
0.587733
0.587733
0.587755
0.587777
0.587799
0.587822
0.587822
0.587844
0.587866
0.587889
0.587911
0.587911
0.587934
0.587956
0.587979
0.588001
0.588001
0.588024
0.588046
0.588069
0.588092
0.588092
0.588114
0.588137
0.58816
0.588182
0.588182
0.588205
0.588228
0.588251
0.588274
0.588274
0.588297
0.58832
0.588342
0.588365
0.588365
0.588388
0.588411
0.588434
0.588458
0.588458
0.588481
0.588504
0.588527
0.58855
0.58855
0.588573
0.588596
0.58862
0.588643
0.588643
0.588666
0.588689
0.588713
0.588736
0.588736
0.58876
0.588783
0.588807
0.58883
0.58883
0.588854
0.588878
0.588901
0.588925
0.588925
0.588949
0.588973
0.588997
0.58902
0.58902
0.589044
0.589068
0.589092
0.589116
0.589116
0.58914
0.589164
0.589188
0.589212
0.589212
0.589236
0.58926
0.589284
0.589309
0.589309
0.589333
0.589357
0.589381
0.589406
0.589406
0.58943
0.589454
0.589479
0.589503
0.589503
0.589527
0.589552
0.589576
0.589601
0.589601
0.589625
0.58965
0.589674
0.589699
0.589699
0.589724
0.589748
0.589773
0.589798
0.589798
0.589823
0.589847
0.589872
0.589897
0.589897
0.589922
0.589947
0.589972
0.589997
0.589997
0.590022
0.590047
0.590072
0.590097
0.590097
0.590122
0.590147
0.590172
0.590197
0.590197
0.590222
0.590248
0.590273
0.590298
0.590298
0.590324
0.590349
0.590374
0.5904
0.5904
0.590425
0.590451
0.590477
0.590502
0.590502
0.590528
0.590554
0.59058
0.590605
0.590605
0.590631
0.590657
0.590683
0.590709
0.590709
0.590735
0.590761
0.590787
0.590813
0.590813
0.590839
0.590865
0.590891
0.590917
0.590917
0.590943
0.59097
0.590996
0.591022
0.591022
0.591048
0.591075
0.591101
0.591127
0.591127
0.591154
0.59118
0.591207
0.591233
0.591233
0.59126
0.591286
0.591313
0.591339
0.591339
0.591366
0.591393
0.59142
0.591446
0.591446
0.591473
0.5915
0.591527
0.591554
0.591554
0.59158
0.591607
0.591634
0.591661
0.591661
0.591688
0.591715
0.591742
0.59177
0.59177
0.591797
0.591824
0.591851
0.591878
0.591878
0.591905
0.591933
0.59196
0.591987
0.591987
0.592015
0.592042
0.59207
0.592097
0.592097
0.592125
0.592153
0.59218
0.592208
0.592208
0.592236
0.592264
0.592292
0.59232