<?xml version="1.0"?>
<VTKFile type="UnstructuredGrid" version="0.1" byte_order="LittleEndian">
<UnstructuredGrid>
<Piece NumberOfPoints="5000" NumberOfCells="4000">
<PointData Scalars="Reaction 0">
<DataArray type="Float32" Name="Reaction 0" format="ascii">
0.568883
0.568883
0.568883
0.568883
0.568883
0.568883
0.568883
0.568883
0.568883
0.568883
0.568883
0.568883
0.568883
0.568883
0.568883
0.568883
0.568883
0.568883
0.568883
0.568883
0.568883
0.568883
0.568883
0.568883
0.568883
0.568883
0.568883
0.568883
0.568883
0.568883
0.568883
0.568883
0.568883
0.568883
0.568883
0.568883
0.568883
0.568883
0.568883
0.568884
0.568884
0.568884
0.568884
0.568884
0.568884
0.568884
0.568884
0.568884
0.568884
0.568884
0.568884
0.568884
0.568884
0.568884
0.568884
0.568884
0.568885
0.568885
0.568885
0.568885
0.568885
0.568885
0.568885
0.568885
0.568885
0.568885
0.568885
0.568885
0.568886
0.568886
0.568886
0.568886
0.568886
0.568886
0.568886
0.568886
0.568886
0.568886
0.568887
0.568887
0.568887
0.568887
0.568887
0.568887
0.568887
0.568887
0.568887
0.568887
0.568888
0.568888
0.568888
0.568888
0.568888
0.568888
0.568888
0.568888
0.568888
0.568889
0.568889
0.568889
0.568889
0.568889
0.568889
0.568889
0.56889
0.56889
0.56889
0.56889
0.56889
0.56889
0.56889
0.56889
0.568891
0.568891
0.568891
0.568891
0.568891
0.568891
0.568892
0.568892
0.568892
0.568892
0.568892
0.568892
0.568893
0.568893
0.568893
0.568893
0.568893
0.568893
0.568893
0.568894
0.568894
0.568894
0.568894
0.568894
0.568894
0.568895
0.568895
0.568895
0.568895
0.568895
0.568896
0.568896
0.568896
0.568896
0.568896
0.568897
0.568897
0.568897
0.568897
0.568897
0.568898
0.568898
0.568898
0.568898
0.568898
0.568899
0.568899
0.568899
0.568899
0.568899
0.5689
0.5689
0.5689
0.5689
0.5689
0.568901
0.568901
0.568901
0.568901
0.568901
0.568902
0.568902
0.568902
0.568902
0.568903
0.568903
0.568903
0.568903
0.568903
0.568904
0.568904
0.568904
0.568905
0.568905
0.568905
0.568905
0.568906
0.568906
0.568906
0.568906
0.568906
0.568907
0.568907
0.568907
0.568907
0.568908
0.568908
0.568908
0.568908
0.568909
0.568909
0.568909
0.56891
0.56891
0.56891
0.56891
0.568911
0.568911
0.568911
0.568911
0.568912
0.568912
0.568912
0.568912
0.568913
0.568913
0.568913
0.568914
0.568914
0.568914
0.568915
0.568915
0.568915
0.568915
0.568916
0.568916
0.568916
0.568917
0.568917
0.568917
0.568917
0.568918
0.568918
0.568918
0.568919
0.568919
0.568919
0.56892
0.56892
0.56892
0.568921
0.568921
0.568921
0.568921
0.568922
0.568922
0.568923
0.568923
0.568923
0.568923
0.568924
0.568924
0.568925
0.568925
0.568925
0.568925
0.568926
0.568926
0.568926
0.568927
0.568927
0.568928
0.568928
0.568928
0.568928
0.568929
0.568929
0.56893
0.56893
0.56893
0.568931
0.568931
0.568931
0.568931
0.568932
0.568932
0.568933
0.568933
0.568933
0.568934
0.568934
0.568935
0.568935
0.568935
0.568936
0.568936
0.568937
0.568937
0.568937
0.568937
0.568938
0.568938
0.568939
0.568939
0.568939
0.56894
0.56894
0.568941
0.568941
0.568941
0.568942
0.568942
0.568943
0.568943
0.568943
0.568944
0.568944
0.568945
0.568945
0.568945
0.568946
0.568946
0.568947
0.568947
0.568947
0.568948
0.568948
0.568949
0.568949
0.568949
0.56895
0.56895
0.568951
0.568951
0.568952
0.568952
0.568953
0.568953
0.568953
0.568954
0.568954
0.568955
0.568955
0.568955
0.568956
0.568956
0.568957
0.568958
0.568958
0.568958
0.568959
0.568959
0.56896
0.56896
0.56896
0.568961
0.568961
0.568962
0.568962
0.568963
0.568963
0.568964
0.568964
0.568964
0.568965
0.568965
0.568966
0.568967
0.568967
0.568967
0.568968
0.568968
0.568969
0.568969
0.56897
0.56897
0.568971
0.568971
0.568971
0.568972
0.568973
0.568973
0.568974
0.568974
0.568974
0.568975
0.568976
0.568976
0.568976
0.568977
0.568978
0.568978
0.568979
0.568979
0.568979
0.56898
0.568981
0.568981
0.568981
0.568982
0.568983
0.568983
0.568984
0.568984
0.568985
0.568985
0.568986
0.568987
0.568987
0.568987
0.568988
0.568989
0.568989
0.568989
0.56899
0.568991
0.568991
0.568992
0.568992
0.568993
0.568993
0.568994
0.568995
0.568995
0.568995
0.568996
0.568997
0.568997
0.568997
0.568998
0.568999
0.568999
0.569
0.569
0.569001
0.569002
0.569002
0.569003
0.569003
0.569004
0.569004
0.569005
0.569006
0.569006
0.569006
0.569007
0.569008
0.569009
0.569009
0.569009
0.56901
0.569011
0.569012
0.569012
0.569012
0.569013
0.569014
0.569014
0.569014
0.569015
0.569016
0.569017
0.569017
0.569017
0.569018
0.569019
0.56902
0.56902
0.56902
0.569021
0.569022
0.569023
0.569024
0.569024
0.569024
0.569025
0.569026
0.569027
0.569027
0.569027
0.569028
0.569029
0.56903
0.56903
0.569031
0.569031
0.569032
0.569033
0.569033
0.569034
0.569034
0.569035
0.569036
0.569036
0.569037
0.569038
0.569039
0.569039
0.569039
0.56904
0.569041
0.569042
0.569043
0.569043
0.569043
0.569044
0.569045
0.569046
0.569046
0.569047
0.569048
0.569048
0.569049
0.569049
0.56905
0.569051
0.569052
0.569053
0.569053
0.569053
0.569054
0.569055
0.569056
0.569056
0.569057
0.569058
0.569059
0.569059
0.569059
0.56906
0.569061
0.569062
0.569063
0.569063
0.569064
0.569065
0.569065
0.569066
0.569066
0.569067
0.569068
0.569069
0.56907
0.56907
0.569071
0.569072
0.569073
0.569073
0.569073
0.569074
0.569075
0.569076
0.569077
0.569077
0.569078
0.569079
0.56908
0.569081
0.569081
0.569082
0.569083
0.569083
0.569084
0.569084
0.569085
0.569086
0.569087
0.569088
0.569088
0.569089
0.56909
0.569091
0.569092
0.569092
0.569093
0.569094
0.569095
0.569096
0.569096
0.569097
0.569098
0.569099
0.569099
0.569099
0.5691
0.569101
0.569102
0.569103
0.569103
0.569104
0.569105
0.569106
0.569107
0.569107
0.569108
0.569109
0.56911
0.569111
0.569111
0.569112
0.569113
0.569114
0.569115
0.569115
0.569116
0.569117
0.569118
0.569119
0.569119
0.56912
0.569121
0.569122
0.569123
0.569123
0.569124
0.569125
0.569126
0.569127
0.569127
0.569128
0.569129
0.56913
0.569131
0.569131
0.569132
0.569133
0.569134
0.569135
0.569135
0.569137
0.569138
0.569139
0.56914
0.56914
0.569141
0.569142
0.569143
0.569144
0.569144
0.569145
0.569146
0.569147
0.569148
0.569148
0.569149
0.56915
0.569151
0.569152
0.569152
0.569154
0.569155
0.569156
0.569157
0.569157
0.569158
0.569159
0.56916
0.569161
0.569161
0.569162
0.569163
0.569164
0.569166
0.569166
0.569167
0.569168
0.569169
0.56917
0.56917
0.569171
0.569172
0.569173
0.569174
0.569174
0.569176
0.569177
0.569178
0.569179
0.569179
0.56918
0.569181
0.569182
0.569184
0.569184
0.569185
0.569186
0.569187
0.569188
0.569188
0.569189
0.56919
0.569192
0.569193
0.569193
0.569194
0.569195
0.569196
0.569197
0.569197
0.569199
0.5692
0.569201
0.569202
0.569202
0.569203
0.569204
0.569206
0.569207
0.569207
0.569208
0.569209
0.56921
0.569212
0.569212
0.569213
0.569214
0.569215
0.569216
0.569216
0.569218
0.569219
0.56922
0.569221
0.569221
0.569222
0.569224
0.569225
0.569226
0.569226
0.569227
0.569229
0.56923
0.569231
0.569231
0.569232
0.569234
0.569235
0.569236
0.569236
0.569237
0.569239
0.56924
0.569241
0.569241
0.569242
0.569244
0.569245
0.569246
0.569246
0.569247
0.569249
0.56925
0.569251
0.569251
0.569252
0.569254
0.569255
0.569256
0.569256
0.569258
0.569259
0.56926
0.569261
0.569261
0.569263
0.569264
0.569265
0.569267
0.569267
0.569268
0.569269
0.569271
0.569272
0.569272
0.569273
0.569274
0.569276
0.569277
0.569277
0.569278
0.56928
0.569281
0.569282
0.569282
0.569284
0.569285
0.569286
0.569288
0.569288
0.569289
0.56929
0.569292
0.569293
0.569293
0.569294
0.569296
0.569297
0.569298
0.569298
0.5693
0.569301
0.569302
0.569304
0.569304
0.569305
0.569307
0.569308
0.569309
0.569309
0.569311
0.569312
0.569314
0.569315
0.569315
0.569316
0.569318
0.569319
0.569321
0.569321
0.569322
0.569323
0.569325
0.569326
0.569326
0.569328
0.569329
0.56933
0.569332
0.569332
0.569333
0.569335
0.569336
0.569338
0.569338
0.569339
0.56934
0.569342
0.569343
0.569343
0.569345
0.569346
0.569348
0.569349
0.569349
0.569351
0.569352
0.569353
0.569355
0.569355
0.569356
0.569358
0.569359
0.569361
0.569361
0.569362
0.569364
0.569365
0.569367
0.569367
0.569368
0.56937
0.569371
0.569373
0.569373
0.569374
0.569376
0.569377
0.569379
0.569379
0.56938
0.569382
0.569383
0.569385
0.569385
0.569386
0.569388
0.569389
0.569391
0.569391
0.569392
0.569394
0.569395
0.569397
0.569397
0.569398
0.5694
0.569401
0.569403
0.569403
0.569404
0.569406
0.569408
0.569409
0.569409
0.569411
0.569412
0.569414
0.569415
0.569415
0.569417
0.569418
0.56942
0.569422
0.569422
0.569423
0.569425
0.569426
0.569428
0.569428
0.569429
0.569431
0.569433
0.569434
0.569434
0.569436
0.569437
0.569439
0.569441
0.569441
0.569442
0.569444
0.569445
0.569447
0.569447
0.569449
0.56945
0.569452
0.569453
0.569453
0.569455
0.569457
0.569458
0.56946
0.56946
0.569462
0.569463
0.569465
0.569467
0.569467
0.569468
0.56947
0.569471
0.569473
0.569473
0.569475
0.569476
0.569478
0.56948
0.56948
0.569481
0.569483
0.569485
0.569486
0.569486
0.569488
0.56949
0.569491
0.569493
0.569493
0.569495
0.569497
0.569498
0.5695
0.5695
0.569502
0.569503
0.569505
0.569507
0.569507
0.569508
0.56951
0.569512
0.569514
0.569514
0.569515
0.569517
0.569519
0.56952
0.56952
0.569522
0.569524
0.569526
0.569527
0.569527
0.569529
0.569531
0.569533
0.569534
0.569534
0.569536
0.569538
0.56954
0.569541
0.569541
0.569543
0.569545
0.569547
0.569548
0.569548
0.56955
0.569552
0.569554
0.569556
0.569556
0.569557
0.569559
0.569561
0.569563
0.569563
0.569565
0.569566
0.569568
0.56957
0.56957
0.569572
0.569574
0.569575
0.569577
0.569577
0.569579
0.569581
0.569583
0.569584
0.569584
0.569586
0.569588
0.56959
0.569592
0.569592
0.569594
0.569595
0.569597
0.569599
0.569599
0.569601
0.569603
0.569605
0.569607
0.569607
0.569608
0.56961
0.569612
0.569614
0.569614
0.569616
0.569618
0.56962
0.569621
0.569621
0.569623
0.569625
0.569627
0.569629
0.569629
0.569631
0.569633
0.569635
0.569637
0.569637
0.569638
0.56964
0.569642
0.569644
0.569644
0.569646
0.569648
0.56965
0.569652
0.569652
0.569654
0.569656
0.569658
0.569659
0.569659
0.569661
0.569663
0.569665
0.569667
0.569667
0.569669
0.569671
0.569673
0.569675
0.569675
0.569677
0.569679
0.569681
0.569683
0.569683
0.569685
0.569687
0.569689
0.569691
0.569691
0.569693
0.569695
0.569697
0.569699
0.569699
0.569701
0.569703
0.569705
0.569707
0.569707
0.569709
0.569711
0.569713
0.569715
0.569715
0.569717
0.569719
0.569721
0.569723
0.569723
0.569725
0.569727
0.569729
0.569731
0.569731
0.569733
0.569735
0.569737
0.569739
0.569739
0.569741
0.569744
0.569746
0.569748
0.569748
0.56975
0.569752
0.569754
0.569756
0.569756
0.569758
0.56976
0.569762
0.569764
0.569764
0.569766
0.569768
0.56977
0.569773
0.569773
0.569775
0.569777
0.569779
0.569781
0.569781
0.569783
0.569785
0.569787
0.569789
0.569789
0.569792
0.569794
0.569796
0.569798
0.569798
0.5698
0.569802
0.569804
0.569807
0.569807
0.569809
0.569811
0.569813
0.569815
0.569815
0.569817
0.569819
0.569822
0.569824
0.569824
0.569826
0.569828
0.56983
0.569833
0.569833
0.569835
0.569837
0.569839
0.569841
0.569841
0.569843
0.569846
0.569848
0.56985
0.56985
0.569852
0.569854
0.569857
0.569859
0.569859
0.569861
0.569863
0.569866
0.569868
0.569868
0.56987
0.569872
0.569875
0.569877
0.569877
0.569879
0.569881
0.569883
0.569886
0.569886
0.569888
0.56989
0.569893
0.569895
0.569895
0.569897
0.569899
0.569902
0.569904
0.569904
0.569906
0.569908
0.569911
0.569913
0.569913
0.569915
0.569918
0.56992
0.569922
0.569922
0.569925
0.569927
0.569929
0.569931
0.569931
0.569934
0.569936
0.569938
0.569941
0.569941
0.569943
0.569945
0.569948
0.56995
0.56995
0.569952
0.569955
0.569957
0.569959
0.569959
0.569962
0.569964
0.569967
0.569969
0.569969
0.569971
0.569974
0.569976
0.569978
0.569978
0.569981
0.569983
0.569986
0.569988
0.569988
0.56999
0.569993
0.569995
0.569998
0.569998
0.57
0.570002
0.570005
0.570007
0.570007
0.57001
0.570012
0.570014
0.570017
0.570017
0.570019
0.570022
0.570024
0.570027
0.570027
0.570029
0.570031
0.570034
0.570036
0.570036
0.570039
0.570041
0.570044
0.570046
0.570046
0.570049
0.570051
0.570054
0.570056
0.570056
0.570059
0.570061
0.570064
0.570066
0.570066
0.570069
0.570071
0.570074
0.570076
0.570076
0.570079
0.570081
0.570084
0.570086
0.570086
0.570089
0.570091
0.570094
0.570096
0.570096
0.570099
0.570101
0.570104
0.570107
0.570107
0.570109
0.570112
0.570114
0.570117
0.570117
0.570119
0.570122
0.570124
0.570127
0.570127
0.57013
0.570132
0.570135
0.570137
0.570137
0.57014
0.570143
0.570145
0.570148
0.570148
0.57015
0.570153
0.570156
0.570158
0.570158
0.570161
0.570163
0.570166
0.570169
0.570169
0.570171
0.570174
0.570177
0.570179
0.570179
0.570182
0.570185
0.570187
0.57019
0.57019
0.570192
0.570195
0.570198
0.5702
0.5702
0.570203
0.570206
0.570209
0.570211
0.570211
0.570214
0.570217
0.570219
0.570222
0.570222
0.570225
0.570227
0.57023
0.570233
0.570233
0.570235
0.570238
0.570241
0.570244
0.570244
0.570246
0.570249
0.570252
0.570255
0.570255
0.570257
0.57026
0.570263
0.570266
0.570266
0.570268
0.570271
0.570274
0.570277
0.570277
0.570279
0.570282
0.570285
0.570288
0.570288
0.570291
0.570293
0.570296
0.570299
0.570299
0.570302
0.570304
0.570307
0.57031
0.57031
0.570313
0.570316
0.570319
0.570321
0.570321
0.570324
0.570327
0.57033
0.570333
0.570333
0.570336
0.570338
0.570341
0.570344
0.570344
0.570347
0.57035
0.570353
0.570356
0.570356
0.570358
0.570361
0.570364
0.570367
0.570367
0.57037
0.570373
0.570376
0.570379
0.570379
0.570381
0.570384
0.570387
0.57039
0.57039
0.570393
0.570396
0.570399
0.570402
0.570402
0.570405
0.570408
0.570411
0.570414
0.570414
0.570416
0.570419
0.570422
0.570425
0.570425
0.570428
0.570431
0.570434
0.570437
0.570437
0.57044
0.570443
0.570446
0.570449
0.570449
0.570452
0.570455
0.570458
0.570461
0.570461
0.570464
0.570467
0.57047
0.570473
0.570473
0.570476
0.570479
0.570482
0.570485
0.570485
0.570488
0.570491
0.570494
0.570497
0.570497
0.5705
0.570504
0.570507
0.57051
0.57051
0.570513
0.570516
0.570519
0.570522
0.570522
0.570525
0.570528
0.570531
0.570534
0.570534
0.570537
0.57054
0.570544
0.570547
0.570547
0.57055
0.570553
0.570556
0.570559
0.570559
0.570562
0.570565
0.570569
0.570572
0.570572
0.570575
0.570578
0.570581
0.570584
0.570584
0.570587
0.570591
0.570594
0.570597
0.570597
0.5706
0.570603
0.570606
0.57061
0.57061
0.570613
0.570616
0.570619
0.570622
0.570622
0.570626
0.570629
0.570632
0.570635
0.570635
0.570638
0.570642
0.570645
0.570648
0.570648
0.570651
0.570655
0.570658
0.570661
0.570661
0.570664
0.570668
0.570671
0.570674
0.570674
0.570677
0.570681
0.570684
0.570687
0.570687
0.57069
0.570694
0.570697
0.5707
0.5707
0.570704
0.570707
0.57071
0.570714
0.570714
0.570717
0.57072
0.570723
0.570727
0.570727
0.57073
0.570733
0.570737
0.57074
0.57074
0.570744
0.570747
0.57075
0.570754
0.570754
0.570757
0.57076
0.570764
0.570767
0.570767
0.57077
0.570774
0.570777
0.570781
0.570781
0.570784
0.570787
0.570791
0.570794
0.570794
0.570798
0.570801
0.570804
0.570808
0.570808
0.570811
0.570815
0.570818
0.570822
0.570822
0.570825
0.570828
0.570832
0.570835
0.570835
0.570839
0.570842
0.570846
0.570849
0.570849
0.570853
0.570856
0.57086
0.570863
0.570863
0.570866
0.57087
0.570873
0.570877
0.570877
0.57088
0.570884
0.570888
0.570891
0.570891
0.570895
0.570898
0.570902
0.570905
0.570905
0.570909
0.570913
0.570916
0.57092
0.57092
0.570923
0.570927
0.57093
0.570934
0.570934
0.570938
0.570941
0.570945
0.570948
0.570948
0.570952
0.570956
0.570959
0.570963
0.570963
0.570966
0.57097
0.570974
0.570977
0.570977
0.570981
0.570985
0.570988
0.570992
0.570992
0.570996
0.570999
0.571003
0.571006
0.571006
0.57101
0.571014
0.571018
0.571021
0.571021
0.571025
0.571029
0.571032
0.571036
0.571036
0.57104
0.571043
0.571047
0.571051
0.571051
0.571055
0.571058
0.571062
0.571066
0.571066
0.571069
0.571073
0.571077
0.571081
0.571081
0.571084
0.571088
0.571092
0.571096
0.571096
0.5711
0.571103
0.571107
0.571111
0.571111
0.571115
0.571119
0.571122
0.571126
0.571126
0.57113
0.571134
0.571138
0.571141
0.571141
0.571145
0.571149
0.571153
0.571157
0.571157
0.571161
0.571164
0.571168
0.571172
0.571172
0.571176
0.57118
0.571184
0.571188
0.571188
0.571192
0.571196
0.571199
0.571203
0.571203
0.571207
0.571211
0.571215
0.571219
0.571219
0.571223
0.571227
0.571231
0.571235
0.571235
0.571239
0.571243
0.571247
0.57125
0.57125
0.571254
0.571258
0.571262
0.571266
0.571266
0.57127
0.571274
0.571278
0.571282
0.571282
0.571286
0.57129
0.571294
0.571298
0.571298
0.571302
0.571306
0.57131
0.571314
0.571314
0.571318
0.571322
0.571326
0.57133
0.57133
0.571334
0.571338
0.571342
0.571347
0.571347
0.571351
0.571355
0.571359
0.571363
0.571363
0.571367
0.571371
0.571375
0.57138
0.57138
0.571384
0.571388
0.571392
0.571396
0.571396
0.5714
0.571404
0.571409
0.571413
0.571413
0.571417
0.571421
0.571425
0.571429
0.571429
0.571434
0.571438
0.571442
0.571446
0.571446
0.57145
0.571455
0.571459
0.571463
0.571463
0.571467
0.571471
0.571476
0.57148
0.57148
0.571484
0.571488
0.571493
0.571497
0.571497
0.571501
0.571505
0.57151
0.571514
0.571514
0.571518
0.571522
0.571527
0.571531
0.571531
0.571535
0.57154
0.571544
0.571548
0.571548
0.571553
0.571557
0.571561
0.571566
0.571566
0.57157
0.571574
0.571579
0.571583
0.571583
0.571587
0.571592
0.571596
0.5716
0.5716
0.571605
0.571609
0.571614
0.571618
0.571618
0.571622
0.571627
0.571631
0.571636
0.571636
0.57164
0.571644
0.571649
0.571653
0.571653
0.571658
0.571662
0.571667
0.571671
0.571671
0.571676
0.57168
0.571684
0.571689
0.571689
0.571693
0.571698
0.571702
0.571707
0.571707
0.571711
0.571716
0.57172
0.571725
0.571725
0.57173
0.571734
0.571739
0.571743
0.571743
0.571748
0.571752
0.571757
0.571761
0.571761
0.571766
0.57177
0.571775
0.57178
0.57178
0.571784
0.571789
0.571793
0.571798
0.571798
0.571802
0.571807
0.571812
0.571816
0.571816
0.571821
0.571825
0.57183
0.571835
0.571835
0.571839
0.571844
0.571849
0.571854
0.571854
0.571858
0.571863
0.571868
0.571872
0.571872
0.571877
0.571882
0.571887
0.571891
0.571891
0.571896
0.571901
0.571906
0.57191
0.57191
0.571915
0.57192
0.571925
0.571929
0.571929
0.571934
0.571939
0.571944
0.571948
0.571948
0.571953
0.571958
0.571963
0.571968
0.571968
0.571972
0.571977
0.571982
0.571987
0.571987
0.571992
0.571997
0.572001
0.572006
0.572006
0.572011
0.572016
0.572021
0.572026
0.572026
0.572031
0.572036
0.57204
0.572045
0.572045
0.57205
0.572055
0.57206
0.572065
0.572065
0.57207
0.572075
0.57208
0.572085
0.572085
0.57209
0.572095
0.5721
0.572105
0.572105
0.57211
0.572115
0.57212
0.572125
0.572125
0.57213
0.572135
0.57214
0.572145
0.572145
0.57215
0.572155
0.57216
0.572165
0.572165
0.57217
0.572175
0.57218
0.572185
0.572185
0.57219
0.572195
0.5722
0.572205
0.572205
0.57221
0.572215
0.572221
0.572226
0.572226
0.572231
0.572236
0.572241
0.572246
0.572246
0.572251
0.572256
0.572262
0.572267
0.572267
0.572272
0.572277
0.572282
0.572287
0.572287
0.572293
0.572298
0.572303
0.572308
0.572308
0.572313
0.572318
0.572324
0.572329
0.572329
0.572334
0.572339
0.572345
0.57235
0.57235
0.572355
0.57236
0.572366
0.572371
0.572371
0.572376
0.572382
0.572387
0.572392
0.572392
0.572398
0.572403
0.572408
0.572414
0.572414
0.572419
0.572424
0.57243
0.572435
0.572435
0.572441
0.572446
0.572451
0.572457
0.572457
0.572462
0.572468
0.572473
0.572478
0.572478
0.572484
0.572489
0.572495
0.5725
0.5725
0.572506
0.572511
0.572516
0.572522
0.572522
0.572527
0.572533
0.572538
0.572544
0.572544
0.572549
0.572555
0.57256
0.572566
0.572566
0.572571
0.572577
0.572582
0.572588
0.572588
0.572594
0.572599
0.572605
0.57261
0.57261
0.572616
0.572621
0.572627
0.572633
0.572633
0.572638
0.572644
0.572649
0.572655
0.572655
0.572661
0.572666
0.572672
0.572678
0.572678
0.572683
0.572689
0.572694
0.5727
0.5727
0.572706
0.572712
0.572717
0.572723
0.572723
0.572729
0.572734
0.57274
0.572746
0.572746
0.572752
0.572757
0.572763
0.572769
0.572769
0.572775
0.57278
0.572786
0.572792
0.572792
0.572798
0.572803
0.572809
0.572815
0.572815
0.572821
0.572827
0.572832
0.572838
0.572838
0.572844
0.57285
0.572856
0.572862
0.572862
0.572867
0.572873
0.572879
0.572885
0.572885
0.572891
0.572897
0.572903
0.572909
0.572909
0.572915
0.57292
0.572926
0.572932
0.572932
0.572938
0.572944
0.57295
0.572956
0.572956
0.572962
0.572968
0.572974
0.572981
0.572981
0.572987
0.572993
0.572999
0.573005
0.573005
0.573011
0.573017
0.573023
0.573029
0.573029
0.573035
0.573041
0.573047
0.573053
0.573053
0.573059
0.573065
0.573072
0.573078
0.573078
0.573084
0.57309
0.573096
0.573102
0.573102
0.573108
0.573115
0.573121
0.573127
0.573127
0.573133
0.573139
0.573145
0.573152
0.573152
0.573158
0.573164
0.57317
0.573177
0.573177
0.573183
0.573189
0.573195
0.573202
0.573202
0.573208
0.573214
0.57322
0.573227
0.573227
0.573233
0.573239
0.573246
0.573252
0.573252
0.573258
0.573265
0.573271
0.573277
0.573277
0.573284
0.57329
0.573297
0.573303
0.573303
0.573309
0.573316
0.573322
0.573329
0.573329
0.573335
0.573341
0.573348
0.573354
0.573354
0.573361
0.573367
0.573374
0.57338
0.57338
0.573387
0.573393
0.5734
0.573406
0.573406
0.573413
0.573419
0.573426
0.573432
0.573432
0.573439
0.573445
0.573452
0.573458
0.573458
0.573465
0.573471
0.573478
0.573484
0.573484
0.573491
0.573498
0.573504
0.573511
0.573511
0.573518
0.573524
0.573531
0.573538
0.573538
0.573545
0.573551
0.573558
0.573565
0.573565
0.573571
0.573578
0.573585
0.573592
0.573592
0.573598
0.573605
0.573612
0.573619
0.573619
0.573625
0.573632
0.573639
0.573646
0.573646
0.573653
0.573659
0.573666
0.573673
0.573673
0.57368
0.573687
0.573694
0.5737
0.5737
0.573707
0.573714
0.573721
0.573728
0.573728
0.573735
0.573742
0.573749
0.573756
0.573756
0.573763
0.57377
0.573776
0.573783
0.573783
0.57379
0.573797
0.573804
0.573811
0.573811
0.573818
0.573825
0.573832
0.573839
0.573839
0.573846
0.573854
0.573861
0.573868
0.573868
0.573875
0.573882
0.573889
0.573896
0.573896
0.573903
0.57391
0.573917
0.573924
0.573924
0.573932
0.573939
0.573946
0.573953
0.573953
0.57396
0.573967
0.573975
0.573982
0.573982
0.573989
0.573996
0.574003
0.574011
0.574011
0.574018
0.574025
0.574032
0.574039
0.574039
0.574047
0.574054
0.574061
0.574068
0.574068
0.574076
0.574083
0.57409
0.574098
0.574098
0.574105
0.574112
0.57412
0.574127
0.574127
0.574135
0.574142
0.574149
0.574157
0.574157
0.574164
0.574172
0.574179
0.574187
0.574187
0.574194
0.574202
0.574209
0.574217
0.574217
0.574224
0.574232
0.574239
0.574247
0.574247
0.574254
0.574262
0.574269
0.574277
0.574277
0.574284
0.574292
0.5743
0.574307
0.574307
0.574315
0.574322
0.57433
0.574338
0.574338
0.574345
0.574353
0.574361
0.574368
0.574368
0.574376
0.574384
0.574391
0.574399
0.574399
0.574407
0.574414
0.574422
0.57443
0.57443
0.574438
0.574445
0.574453
0.574461
0.574461
0.574469
0.574477
0.574484
0.574492
0.574492
0.5745
0.574508
0.574516
0.574523
0.574523
0.574531
0.574539
0.574547
0.574555
0.574555
0.574563
0.574571
0.574579
0.574587
0.574587
0.574595
0.574602
0.57461
0.574618
0.574618
0.574626
0.574634
0.574642
0.57465
0.57465
0.574658
0.574666
0.574674
0.574682
0.574682
0.57469
0.574698
0.574706
0.574714
0.574714
0.574723
0.574731
0.574739
0.574747
0.574747
0.574755
0.574763
0.574771
0.574779
0.574779
0.574787
0.574796
0.574804
0.574812
0.574812
0.57482
0.574829
0.574837
0.574845
0.574845
0.574853
0.574862
0.57487
0.574878
0.574878
0.574887
0.574895
0.574903
0.574912
0.574912
0.57492
0.574928
0.574937
0.574945
0.574945
0.574953
0.574962
0.57497
0.574979
0.574979
0.574987
0.574995
0.575004
0.575012
0.575012
0.575021
0.575029
0.575038
0.575046
0.575046
0.575055
0.575063
0.575072
0.57508
0.57508
0.575089
0.575097
0.575106
0.575114
0.575114
0.575123
0.575132
0.57514
0.575149
0.575149
0.575157
0.575166
0.575175
0.575183
0.575183
0.575192
0.575201
0.575209
0.575218
0.575218
0.575227
0.575235
0.575244
0.575253
0.575253
0.575262
0.57527
0.575279
0.575288
0.575288
0.575297
0.575305
0.575314
0.575323
0.575323
0.575332
0.575341
0.57535
0.575358
0.575358
0.575367
0.575376
0.575385
0.575394
0.575394
0.575403
0.575412
0.575421
0.575429
0.575429
0.575438
0.575447
0.575456
0.575465
0.575465
0.575474
0.575483
0.575492
0.575501
0.575501
0.57551
0.57552
0.575529
0.575538
0.575538
0.575547
0.575556
0.575565
0.575574
0.575574
0.575584
0.575593
0.575602
0.575611
0.575611
0.57562
0.575629
0.575639
0.575648
0.575648
0.575657
0.575666
0.575676
0.575685
0.575685
0.575694
0.575704
0.575713
0.575722
0.575722
0.575731
0.575741
0.57575
0.575759
0.575759
0.575769
0.575778
0.575788
0.575797
0.575797
0.575806
0.575816
0.575825
0.575835
0.575835
0.575844
0.575854
0.575863
0.575873
0.575873
0.575882
0.575892
0.575901
0.575911
0.575911
0.57592
0.57593
0.575939
0.575949
0.575949
0.575959
0.575968
0.575978
0.575987
0.575987
0.575997
0.576007
0.576016
0.576026
0.576026
0.576036
0.576045
0.576055
0.576065
0.576065
0.576075
0.576084
0.576094
0.576104
0.576104
0.576114
0.576123
0.576133
0.576143
0.576143
0.576153
0.576163
0.576172
0.576182
0.576182
0.576192
0.576202
0.576212
0.576222
0.576222
0.576232
0.576242
0.576252
0.576262
0.576262
0.576272
0.576282
0.576292
0.576302
0.576302
0.576312
0.576322
0.576332
0.576342
0.576342
0.576352
0.576362
0.576373
0.576383
0.576383
0.576393
0.576403
0.576413
0.576423
0.576423
0.576434
0.576444
0.576454
0.576464
0.576464
0.576474
0.576485
0.576495
0.576505
0.576505
0.576516
0.576526
0.576536
0.576546
0.576546
0.576557
0.576567
0.576578
0.576588
0.576588
0.576598
0.576609
0.576619
0.57663
0.57663
0.57664
0.57665
0.576661
0.576671
0.576671
0.576682
0.576692
0.576703
0.576713
0.576713
0.576724
0.576735
0.576745
0.576756
0.576756
0.576766
0.576777
0.576788
0.576798
0.576798
0.576809
0.576819
0.57683
0.576841
0.576841
0.576852
0.576862
0.576873
0.576884
0.576884
0.576894
0.576905
0.576916
0.576927
0.576927
0.576937
0.576948
0.576959
0.57697
0.57697
0.576981
0.576991
0.577002
0.577013
0.577013
0.577024
0.577035
0.577046
0.577057
0.577057
0.577068
0.577079
0.57709
0.577101
0.577101
0.577112
0.577123
0.577134
0.577146
0.577146
0.577157
0.577168
0.577179
0.57719
0.57719
0.577201
0.577212
0.577224
0.577235
0.577235
0.577246
0.577257
0.577268
0.57728
0.57728
0.577291
0.577302
0.577314
0.577325
0.577325
0.577336
0.577347
0.577359
0.57737
0.57737
0.577382
0.577393
0.577404
0.577416
0.577416
0.577427
0.577439
0.57745
0.577462
0.577462
0.577473
0.577484
0.577496
0.577508
0.577508
0.577519
0.577531
0.577542
0.577554
0.577554
0.577565
0.577577
0.577589
0.5776
0.5776
0.577612
0.577624
0.577635
0.577647
0.577647
0.577659
0.57767
0.577682
0.577694
0.577694
0.577706
0.577717
0.577729
0.577741
0.577741
0.577753
0.577765
0.577776
0.577788
0.577788
0.5778
0.577812
0.577824
0.577836
0.577836
0.577848
0.577859
0.577871
0.577883
0.577883
0.577895
0.577908
0.57792
0.577932
0.577932
0.577944
0.577956
0.577968
0.57798
0.57798
0.577993
0.578005
0.578017
0.578029
0.578029
0.578041
0.578054
0.578066
0.578078
0.578078
0.57809
0.578103
0.578115
0.578127
0.578127
0.57814
0.578152
0.578164
0.578177
0.578177
0.578189
0.578201
0.578214
0.578226
0.578226
0.578239
0.578251
0.578264
0.578276
0.578276
0.578289
0.578301
0.578314
0.578326
0.578326
0.578339
0.578352
0.578364
0.578377
0.578377
0.578389
0.578402
0.578415
0.578427
0.578427
0.57844
0.578453
0.578466
0.578478
0.578478
0.578491
0.578504
0.578517
0.578529
0.578529
0.578542
0.578555
0.578568
0.578581
0.578581
0.578594
0.578607
0.578619
0.578632
0.578632
0.578645
0.578658
0.578671
0.578684
0.578684
0.578697
0.57871
0.578723
0.578736
0.578736
0.578749
0.578762
0.578775
0.578788
0.578788
0.578802
0.578815
0.578828
0.578841
0.578841
0.578855
0.578868
0.578881
0.578895
0.578895
0.578908
0.578921
0.578935
0.578948
0.578948
0.578962
0.578975
0.578988
0.579002
0.579002
0.579015
0.579029
0.579042
0.579056
0.579056
0.579069
0.579083
0.579096
0.57911
0.57911
0.579123
0.579137
0.579151
0.579164
0.579164
0.579178
0.579192
0.579205
0.579219
0.579219
0.579233
0.579246
0.57926
0.579274
0.579274
0.579288
0.579301
0.579315
0.579329
0.579329
0.579343
0.579357
0.579371
0.579385
0.579385
0.579399
0.579412
0.579426
0.57944
0.57944
0.579454
0.579468
0.579482
0.579496
0.579496
0.57951
0.579525
0.579539
0.579553
0.579553
0.579567
0.579581
0.579595
0.579609
0.579609
0.579623
0.579638
0.579652
0.579666
0.579666
0.57968
0.579694
0.579709
0.579723
0.579723
0.579737
0.579752
0.579766
0.579781
0.579781
0.579795
0.57981
0.579824
0.579839
0.579839
0.579853
0.579868
0.579882
0.579897
0.579897
0.579912
0.579926
0.579941
0.579956
0.579956
0.57997
0.579985
0.58
0.580014
0.580014
0.580029
0.580044
0.580059
0.580074
0.580074
0.580088
0.580103
0.580118
0.580133
0.580133
0.580148
0.580163
0.580178
0.580193
0.580193
0.580208
0.580222
0.580237
0.580253
0.580253
0.580268
0.580283
0.580298
0.580313
0.580313
0.580328
0.580343
0.580358
0.580373
0.580373
0.580389
0.580404
0.580419
0.580434
0.580434
0.58045
0.580465
0.58048
0.580495
0.580495
0.580511
0.580526
0.580541
0.580557
0.580557
0.580572
0.580588
0.580603
0.580619
0.580619
0.580634
0.580649
0.580665
0.58068
0.58068
0.580696
0.580712
0.580727
0.580743
0.580743
0.580758
0.580774
0.58079
0.580806
0.580806
0.580822
0.580837
0.580853
0.580869
0.580869
0.580885
0.580901
0.580917
0.580933
0.580933
0.580949
0.580965
0.580981
0.580997
0.580997
0.581013
0.581029
0.581045
0.581061
0.581061
0.581077
0.581093
0.581109
0.581125
0.581125
0.581142
0.581158
0.581174
0.58119
0.58119
0.581207
0.581223
0.581239
0.581255
0.581255
0.581272
0.581288
0.581305
0.581321
0.581321
0.581337
0.581354
0.58137
0.581387
0.581387
0.581403
0.58142
0.581436
0.581453
0.581453
0.581469
0.581486
0.581503
0.581519
0.581519
0.581536
0.581553
0.581569
0.581586
0.581586
0.581603
0.58162
0.581636
0.581653
0.581653
0.58167
0.581687
0.581704
0.581721
0.581721
0.581737
0.581754
0.581771
0.581788
0.581788
0.581805
0.581822
0.581839
0.581856
0.581856
0.581874
0.581891
0.581908
0.581925
0.581925
0.581943
0.58196
0.581977
0.581995
0.581995
0.582012
0.582029
0.582047
0.582064
0.582064
0.582081
0.582099
0.582116
0.582134
0.582134
0.582151
0.582169
0.582186
0.582204
0.582204
0.582222
0.582239
0.582257
0.582274
0.582274
0.582292
0.58231
0.582328
0.582345
0.582345
0.582363
0.582381
0.582399
0.582417
0.582417
0.582434
0.582452
0.58247
0.582488
0.582488
0.582506
0.582524
0.582542
0.58256
0.58256
0.582578
0.582596
0.582614
0.582632
0.582632
0.58265
0.582669
0.582687
0.582705
0.582705
0.582723
0.582741
0.58276
0.582778
0.582778
0.582796
0.582814
0.582833
0.582851
0.582851
0.582869
0.582888
0.582906
0.582925
0.582925
0.582943
0.582962
0.58298
0.582999
0.582999
0.583017
0.583036
0.583055
0.583074
0.583074
0.583092
0.583111
0.58313
0.583149