<?xml version="1.0"?>
<VTKFile type="UnstructuredGrid" version="0.1" byte_order="LittleEndian">
<UnstructuredGrid>
<Piece NumberOfPoints="5000" NumberOfCells="4000">
<PointData Scalars="Reaction 0">
<DataArray type="Float32" Name="Reaction 0" format="ascii">
0.219574
0.219574
0.219574
0.219574
0.219575
0.219575
0.219575
0.219575
0.219575
0.219575
0.219575
0.219576
0.219576
0.219576
0.219577
0.219577
0.219577
0.219578
0.219578
0.219579
0.219579
0.219579
0.21958
0.21958
0.219581
0.219581
0.219582
0.219583
0.219583
0.219584
0.219584
0.219585
0.219586
0.219587
0.219588
0.219588
0.219589
0.21959
0.219591
0.219592
0.219592
0.219593
0.219594
0.219595
0.219597
0.219597
0.219598
0.219599
0.2196
0.219602
0.219602
0.219603
0.219605
0.219606
0.219608
0.219608
0.219609
0.219611
0.219612
0.219614
0.219614
0.219616
0.219617
0.219619
0.219621
0.219621
0.219623
0.219624
0.219626
0.219628
0.219628
0.21963
0.219632
0.219634
0.219636
0.219636
0.219638
0.21964
0.219643
0.219645
0.219645
0.219647
0.219649
0.219651
0.219654
0.219654
0.219656
0.219659
0.219661
0.219663
0.219663
0.219666
0.219668
0.219671
0.219674
0.219674
0.219676
0.219679
0.219682
0.219684
0.219684
0.219687
0.21969
0.219693
0.219696
0.219696
0.219698
0.219701
0.219704
0.219707
0.219707
0.21971
0.219714
0.219717
0.21972
0.21972
0.219723
0.219726
0.219729
0.219733
0.219733
0.219736
0.219739
0.219743
0.219746
0.219746
0.21975
0.219753
0.219757
0.21976
0.21976
0.219764
0.219767
0.219771
0.219775
0.219775
0.219779
0.219782
0.219786
0.21979
0.21979
0.219794
0.219798
0.219802
0.219806
0.219806
0.21981
0.219814
0.219818
0.219822
0.219822
0.219826
0.21983
0.219834
0.219839
0.219839
0.219843
0.219847
0.219852
0.219856
0.219856
0.21986
0.219865
0.219869
0.219874
0.219874
0.219878
0.219883
0.219888
0.219892
0.219892
0.219897
0.219902
0.219906
0.219911
0.219911
0.219916
0.219921
0.219926
0.219931
0.219931
0.219936
0.219941
0.219946
0.219951
0.219951
0.219956
0.219961
0.219966
0.219971
0.219971
0.219977
0.219982
0.219987
0.219993
0.219993
0.219998
0.220003
0.220009
0.220014
0.220014
0.22002
0.220025
0.220031
0.220037
0.220037
0.220042
0.220048
0.220054
0.22006
0.22006
0.220065
0.220071
0.220077
0.220083
0.220083
0.220089
0.220095
0.220101
0.220107
0.220107
0.220113
0.220119
0.220125
0.220131
0.220131
0.220138
0.220144
0.22015
0.220156
0.220156
0.220163
0.220169
0.220175
0.220182
0.220182
0.220188
0.220195
0.220201
0.220208
0.220208
0.220215
0.220221
0.220228
0.220235
0.220235
0.220242
0.220248
0.220255
0.220262
0.220262
0.220269
0.220276
0.220283
0.22029
0.22029
0.220297
0.220304
0.220311
0.220318
0.220318
0.220325
0.220332
0.22034
0.220347
0.220347
0.220354
0.220362
0.220369
0.220376
0.220376
0.220384
0.220391
0.220399
0.220406
0.220406
0.220414
0.220422
0.220429
0.220437
0.220437
0.220445
0.220452
0.22046
0.220468
0.220468
0.220476
0.220484
0.220492
0.2205
0.2205
0.220508
0.220516
0.220524
0.220532
0.220532
0.22054
0.220548
0.220556
0.220565
0.220565
0.220573
0.220581
0.220589
0.220598
0.220598
0.220606
0.220615
0.220623
0.220632
0.220632
0.22064
0.220649
0.220657
0.220666
0.220666
0.220675
0.220683
0.220692
0.220701
0.220701
0.22071
0.220719
0.220728
0.220736
0.220736
0.220745
0.220754
0.220763
0.220772
0.220772
0.220782
0.220791
0.2208
0.220809
0.220809
0.220818
0.220828
0.220837
0.220846
0.220846
0.220856
0.220865
0.220874
0.220884
0.220884
0.220893
0.220903
0.220913
0.220922
0.220922
0.220932
0.220941
0.220951
0.220961
0.220961
0.220971
0.220981
0.22099
0.221
0.221
0.22101
0.22102
0.22103
0.22104
0.22104
0.22105
0.22106
0.22107
0.221081
0.221081
0.221091
0.221101
0.221111
0.221122
0.221122
0.221132
0.221142
0.221153
0.221163
0.221163
0.221174
0.221184
0.221195
0.221205
0.221205
0.221216
0.221226
0.221237
0.221248
0.221248
0.221259
0.221269
0.22128
0.221291
0.221291
0.221302
0.221313
0.221324
0.221335
0.221335
0.221346
0.221357
0.221368
0.221379
0.221379
0.22139
0.221401
0.221413
0.221424
0.221424
0.221435
0.221446
0.221458
0.221469
0.221469
0.221481
0.221492
0.221504
0.221515
0.221515
0.221527
0.221538
0.22155
0.221562
0.221562
0.221573
0.221585
0.221597
0.221609
0.221609
0.22162
0.221632
0.221644
0.221656
0.221656
0.221668
0.22168
0.221692
0.221704
0.221704
0.221716
0.221729
0.221741
0.221753
0.221753
0.221765
0.221778
0.22179
0.221802
0.221802
0.221815
0.221827
0.22184
0.221852
0.221852
0.221865
0.221877
0.22189
0.221902
0.221902
0.221915
0.221928
0.22194
0.221953
0.221953
0.221966
0.221979
0.221992
0.222005
0.222005
0.222018
0.222031
0.222044
0.222057
0.222057
0.22207
0.222083
0.222096
0.222109
0.222109
0.222122
0.222136
0.222149
0.222162
0.222162
0.222176
0.222189
0.222202
0.222216
0.222216
0.222229
0.222243
0.222256
0.22227
0.22227
0.222284
0.222297
0.222311
0.222325
0.222325
0.222339
0.222352
0.222366
0.22238
0.22238
0.222394
0.222408
0.222422
0.222436
0.222436
0.22245
0.222464
0.222478
0.222492
0.222492
0.222506
0.222521
0.222535
0.222549
0.222549
0.222564
0.222578
0.222592
0.222607
0.222607
0.222621
0.222636
0.22265
0.222665
0.222665
0.222679
0.222694
0.222709
0.222723
0.222723
0.222738
0.222753
0.222768
0.222782
0.222782
0.222797
0.222812
0.222827
0.222842
0.222842
0.222857
0.222872
0.222887
0.222902
0.222902
0.222917
0.222933
0.222948
0.222963
0.222963
0.222978
0.222994
0.223009
0.223024
0.223024
0.22304
0.223055
0.223071
0.223086
0.223086
0.223102
0.223117
0.223133
0.223149
0.223149
0.223164
0.22318
0.223196
0.223212
0.223212
0.223228
0.223243
0.223259
0.223275
0.223275
0.223291
0.223307
0.223323
0.223339
0.223339
0.223355
0.223372
0.223388
0.223404
0.223404
0.22342
0.223436
0.223453
0.223469
0.223469
0.223485
0.223502
0.223518
0.223535
0.223535
0.223551
0.223568
0.223584
0.223601
0.223601
0.223618
0.223634
0.223651
0.223668
0.223668
0.223685
0.223702
0.223718
0.223735
0.223735
0.223752
0.223769
0.223786
0.223803
0.223803
0.22382
0.223837
0.223854
0.223872
0.223872
0.223889
0.223906
0.223923
0.223941
0.223941
0.223958
0.223975
0.223993
0.22401
0.22401
0.224028
0.224045
0.224063
0.22408
0.22408
0.224098
0.224116
0.224133
0.224151
0.224151
0.224169
0.224187
0.224204
0.224222
0.224222
0.22424
0.224258
0.224276
0.224294
0.224294
0.224312
0.22433
0.224348
0.224366
0.224366
0.224384
0.224403
0.224421
0.224439
0.224439
0.224457
0.224476
0.224494
0.224513
0.224513
0.224531
0.22455
0.224568
0.224587
0.224587
0.224605
0.224624
0.224642
0.224661
0.224661
0.22468
0.224699
0.224717
0.224736
0.224736
0.224755
0.224774
0.224793
0.224812
0.224812
0.224831
0.22485
0.224869
0.224888
0.224888
0.224907
0.224926
0.224945
0.224965
0.224965
0.224984
0.225003
0.225023
0.225042
0.225042
0.225061
0.225081
0.2251
0.22512
0.22512
0.225139
0.225159
0.225178
0.225198
0.225198
0.225218
0.225237
0.225257
0.225277
0.225277
0.225297
0.225317
0.225336
0.225356
0.225356
0.225376
0.225396
0.225416
0.225436
0.225436
0.225457
0.225477
0.225497
0.225517
0.225517
0.225537
0.225557
0.225578
0.225598
0.225598
0.225618
0.225639
0.225659
0.22568
0.22568
0.2257
0.225721
0.225741
0.225762
0.225762
0.225783
0.225803
0.225824
0.225845
0.225845
0.225865
0.225886
0.225907
0.225928
0.225928
0.225949
0.22597
0.225991
0.226012
0.226012
0.226033
0.226054
0.226075
0.226096
0.226096
0.226117
0.226139
0.22616
0.226181
0.226181
0.226203
0.226224
0.226245
0.226267
0.226267
0.226288
0.22631
0.226331
0.226353
0.226353
0.226374
0.226396
0.226418
0.226439
0.226439
0.226461
0.226483
0.226505
0.226526
0.226526
0.226548
0.22657
0.226592
0.226614
0.226614
0.226636
0.226658
0.22668
0.226702
0.226702
0.226725
0.226747
0.226769
0.226791
0.226791
0.226813
0.226836
0.226858
0.226881
0.226881
0.226903
0.226925
0.226948
0.22697
0.22697
0.226993
0.227016
0.227038
0.227061
0.227061
0.227084
0.227106
0.227129
0.227152
0.227152
0.227175
0.227198
0.22722
0.227243
0.227243
0.227266
0.227289
0.227312
0.227335
0.227335
0.227359
0.227382
0.227405
0.227428
0.227428
0.227451
0.227475
0.227498
0.227521
0.227521
0.227545
0.227568
0.227592
0.227615
0.227615
0.227639
0.227662
0.227686
0.227709
0.227709
0.227733
0.227757
0.22778
0.227804
0.227804
0.227828
0.227852
0.227876
0.227899
0.227899
0.227923
0.227947
0.227971
0.227995
0.227995
0.228019
0.228044
0.228068
0.228092
0.228092
0.228116
0.22814
0.228165
0.228189
0.228189
0.228213
0.228238
0.228262
0.228286
0.228286
0.228311
0.228335
0.22836
0.228385
0.228385
0.228409
0.228434
0.228459
0.228483
0.228483
0.228508
0.228533
0.228558
0.228582
0.228582
0.228607
0.228632
0.228657
0.228682
0.228682
0.228707
0.228732
0.228757
0.228783
0.228783
0.228808
0.228833
0.228858
0.228883
0.228883
0.228909
0.228934
0.228959
0.228985
0.228985
0.22901
0.229036
0.229061
0.229087
0.229087
0.229112
0.229138
0.229164
0.229189
0.229189
0.229215
0.229241
0.229267
0.229292
0.229292
0.229318
0.229344
0.22937
0.229396
0.229396
0.229422
0.229448
0.229474
0.2295
0.2295
0.229526
0.229552
0.229579
0.229605
0.229605
0.229631
0.229657
0.229684
0.22971
0.22971
0.229736
0.229763
0.229789
0.229816
0.229816
0.229842
0.229869
0.229896
0.229922
0.229922
0.229949
0.229976
0.230002
0.230029
0.230029
0.230056
0.230083
0.23011
0.230137
0.230137
0.230164
0.230191
0.230218
0.230245
0.230245
0.230272
0.230299
0.230326
0.230353
0.230353
0.23038
0.230408
0.230435
0.230462
0.230462
0.23049
0.230517
0.230544
0.230572
0.230572
0.230599
0.230627
0.230654
0.230682
0.230682
0.23071
0.230737
0.230765
0.230793
0.230793
0.230821
0.230848
0.230876
0.230904
0.230904
0.230932
0.23096
0.230988
0.231016
0.231016
0.231044
0.231072
0.2311
0.231128
0.231128
0.231156
0.231185
0.231213
0.231241
0.231241
0.23127
0.231298
0.231326
0.231355
0.231355
0.231383
0.231412
0.23144
0.231469
0.231469
0.231497
0.231526
0.231555
0.231583
0.231583
0.231612
0.231641
0.23167
0.231698
0.231698
0.231727
0.231756
0.231785
0.231814
0.231814
0.231843
0.231872
0.231901
0.23193
0.23193
0.231959
0.231989
0.232018
0.232047
0.232047
0.232076
0.232106
0.232135
0.232164
0.232164
0.232194
0.232223
0.232253
0.232282
0.232282
0.232312
0.232341
0.232371
0.232401
0.232401
0.23243
0.23246
0.23249
0.23252
0.23252
0.232549
0.232579
0.232609
0.232639
0.232639
0.232669
0.232699
0.232729
0.232759
0.232759
0.232789
0.232819
0.23285
0.23288
0.23288
0.23291
0.23294
0.232971
0.233001
0.233001
0.233031
0.233062
0.233092
0.233123
0.233123
0.233153
0.233184
0.233214
0.233245
0.233245
0.233275
0.233306
0.233337
0.233368
0.233368
0.233398
0.233429
0.23346
0.233491
0.233491
0.233522
0.233553
0.233584
0.233615
0.233615
0.233646
0.233677
0.233708
0.233739
0.233739
0.23377
0.233802
0.233833
0.233864
0.233864
0.233896
0.233927
0.233958
0.23399
0.23399
0.234021
0.234053
0.234084
0.234116
0.234116
0.234147
0.234179
0.234211
0.234242
0.234242
0.234274
0.234306
0.234338
0.23437
0.23437
0.234402
0.234433
0.234465
0.234497
0.234497
0.234529
0.234561
0.234593
0.234626
0.234626
0.234658
0.23469
0.234722
0.234754
0.234754
0.234787
0.234819
0.234851
0.234884
0.234884
0.234916
0.234949
0.234981
0.235014
0.235014
0.235046
0.235079
0.235111
0.235144
0.235144
0.235177
0.23521
0.235242
0.235275
0.235275
0.235308
0.235341
0.235374
0.235407
0.235407
0.23544
0.235473
0.235506
0.235539
0.235539
0.235572
0.235605
0.235638
0.235671
0.235671
0.235705
0.235738
0.235771
0.235805
0.235805
0.235838
0.235871
0.235905
0.235938
0.235938
0.235972
0.236005
0.236039
0.236073
0.236073
0.236106
0.23614
0.236174
0.236207
0.236207
0.236241
0.236275
0.236309
0.236343
0.236343
0.236377
0.236411
0.236445
0.236479
0.236479
0.236513
0.236547
0.236581
0.236615
0.236615
0.236649
0.236684
0.236718
0.236752
0.236752
0.236787
0.236821
0.236855
0.23689
0.23689
0.236924
0.236959
0.236993
0.237028
0.237028
0.237063
0.237097
0.237132
0.237167
0.237167
0.237201
0.237236
0.237271
0.237306
0.237306
0.237341
0.237376
0.237411
0.237446
0.237446
0.237481
0.237516
0.237551
0.237586
0.237586
0.237621
0.237656
0.237691
0.237727
0.237727
0.237762
0.237797
0.237833
0.237868
0.237868
0.237904
0.237939
0.237975
0.23801
0.23801
0.238046
0.238081
0.238117
0.238153
0.238153
0.238188
0.238224
0.23826
0.238296
0.238296
0.238331
0.238367
0.238403
0.238439
0.238439
0.238475
0.238511
0.238547
0.238583
0.238583
0.238619
0.238656
0.238692
0.238728
0.238728
0.238764
0.238801
0.238837
0.238873
0.238873
0.23891
0.238946
0.238982
0.239019
0.239019
0.239055
0.239092
0.239129
0.239165
0.239165
0.239202
0.239239
0.239275
0.239312
0.239312
0.239349
0.239386
0.239423
0.23946
0.23946
0.239496
0.239533
0.23957
0.239608
0.239608
0.239645
0.239682
0.239719
0.239756
0.239756
0.239793
0.23983
0.239868
0.239905
0.239905
0.239942
0.23998
0.240017
0.240055
0.240055
0.240092
0.24013
0.240167
0.240205
0.240205
0.240242
0.24028
0.240318
0.240355
0.240355
0.240393
0.240431
0.240469
0.240507
0.240507
0.240545
0.240583
0.24062
0.240658
0.240658
0.240697
0.240735
0.240773
0.240811
0.240811
0.240849
0.240887
0.240925
0.240964
0.240964
0.241002
0.24104
0.241079
0.241117
0.241117
0.241156
0.241194
0.241232
0.241271
0.241271
0.24131
0.241348
0.241387
0.241426
0.241426
0.241464
0.241503
0.241542
0.241581
0.241581
0.241619
0.241658
0.241697
0.241736
0.241736
0.241775
0.241814
0.241853
0.241892
0.241892
0.241931
0.241971
0.24201
0.242049
0.242049
0.242088
0.242128
0.242167
0.242206
0.242206
0.242246
0.242285
0.242325
0.242364
0.242364
0.242404
0.242443
0.242483
0.242522
0.242522
0.242562
0.242602
0.242641
0.242681
0.242681
0.242721
0.242761
0.242801
0.242841
0.242841
0.242881
0.242921
0.242961
0.243001
0.243001
0.243041
0.243081
0.243121
0.243161
0.243161
0.243201
0.243242
0.243282
0.243322
0.243322
0.243363
0.243403
0.243443
0.243484
0.243484
0.243524
0.243565
0.243605
0.243646
0.243646
0.243687
0.243727
0.243768
0.243809
0.243809
0.243849
0.24389
0.243931
0.243972
0.243972
0.244013
0.244054
0.244095
0.244136
0.244136
0.244177
0.244218
0.244259
0.2443
0.2443
0.244341
0.244382
0.244424
0.244465
0.244465
0.244506
0.244547
0.244589
0.24463
0.24463
0.244672
0.244713
0.244755
0.244796
0.244796
0.244838
0.244879
0.244921
0.244963
0.244963
0.245004
0.245046
0.245088
0.24513
0.24513
0.245172
0.245213
0.245255
0.245297
0.245297
0.245339
0.245381
0.245423
0.245465
0.245465
0.245508
0.24555
0.245592
0.245634
0.245634
0.245676
0.245719
0.245761
0.245803
0.245803
0.245846
0.245888
0.245931
0.245973
0.245973
0.246016
0.246058
0.246101
0.246144
0.246144
0.246186
0.246229
0.246272
0.246314
0.246314
0.246357
0.2464
0.246443
0.246486
0.246486
0.246529
0.246572
0.246615
0.246658
0.246658
0.246701
0.246744
0.246787
0.24683
0.24683
0.246873
0.246917
0.24696
0.247003
0.247003
0.247047
0.24709
0.247133
0.247177
0.247177
0.24722
0.247264
0.247307
0.247351
0.247351
0.247395
0.247438
0.247482
0.247526
0.247526
0.247569
0.247613
0.247657
0.247701
0.247701
0.247745
0.247789
0.247833
0.247877
0.247877
0.247921
0.247965
0.248009
0.248053
0.248053
0.248097
0.248141
0.248186
0.24823
0.24823
0.248274
0.248318
0.248363
0.248407
0.248407
0.248452
0.248496
0.248541
0.248585
0.248585
0.24863
0.248674
0.248719
0.248764
0.248764
0.248808
0.248853
0.248898
0.248943
0.248943
0.248988
0.249032
0.249077
0.249122
0.249122
0.249167
0.249212
0.249257
0.249302
0.249302
0.249347
0.249393
0.249438
0.249483
0.249483
0.249528
0.249574
0.249619
0.249664
0.249664
0.24971
0.249755
0.2498
0.249846
0.249846
0.249892
0.249937
0.249983
0.250028
0.250028
0.250074
0.25012
0.250165
0.250211
0.250211
0.250257
0.250303
0.250349
0.250394
0.250394
0.25044
0.250486
0.250532
0.250578
0.250578
0.250624
0.250671
0.250717
0.250763
0.250763
0.250809
0.250855
0.250902
0.250948
0.250948
0.250994
0.251041
0.251087
0.251133
0.251133
0.25118
0.251226
0.251273
0.25132
0.25132
0.251366
0.251413
0.251459
0.251506
0.251506
0.251553
0.2516
0.251647
0.251693
0.251693
0.25174
0.251787
0.251834
0.251881
0.251881
0.251928
0.251975
0.252022
0.252069
0.252069
0.252117
0.252164
0.252211
0.252258
0.252258
0.252305
0.252353
0.2524
0.252448
0.252448
0.252495
0.252542
0.25259
0.252637
0.252637
0.252685
0.252733
0.25278
0.252828
0.252828
0.252876
0.252923
0.252971
0.253019
0.253019
0.253067
0.253115
0.253162
0.25321
0.25321
0.253258
0.253306
0.253354
0.253402
0.253402
0.253451
0.253499
0.253547
0.253595
0.253595
0.253643
0.253692
0.25374
0.253788
0.253788
0.253837
0.253885
0.253933
0.253982
0.253982
0.25403
0.254079
0.254128
0.254176
0.254176
0.254225
0.254273
0.254322
0.254371
0.254371
0.25442
0.254469
0.254517
0.254566
0.254566
0.254615
0.254664
0.254713
0.254762
0.254762
0.254811
0.25486
0.254909
0.254959
0.254959
0.255008
0.255057
0.255106
0.255156
0.255156
0.255205
0.255254
0.255304
0.255353
0.255353
0.255402
0.255452
0.255501
0.255551
0.255551
0.255601
0.25565
0.2557
0.25575
0.25575
0.255799
0.255849
0.255899
0.255949
0.255949
0.255999
0.256048
0.256098
0.256148
0.256148
0.256198
0.256248
0.256299
0.256349
0.256349
0.256399
0.256449
0.256499
0.256549
0.256549
0.2566
0.25665
0.2567
0.256751
0.256751
0.256801
0.256851
0.256902
0.256952
0.256952
0.257003
0.257054
0.257104
0.257155
0.257155
0.257206
0.257256
0.257307
0.257358
0.257358
0.257409
0.257459
0.25751
0.257561
0.257561
0.257612
0.257663
0.257714
0.257765
0.257765
0.257816
0.257867
0.257919
0.25797
0.25797
0.258021
0.258072
0.258124
0.258175
0.258175
0.258226
0.258278
0.258329
0.25838
0.25838
0.258432
0.258483
0.258535
0.258587
0.258587
0.258638
0.25869
0.258742
0.258793
0.258793
0.258845
0.258897
0.258949
0.259001
0.259001
0.259052
0.259104
0.259156
0.259208
0.259208
0.25926
0.259312
0.259365
0.259417
0.259417
0.259469
0.259521
0.259573
0.259626
0.259626
0.259678
0.25973
0.259783
0.259835
0.259835
0.259887
0.25994
0.259992
0.260045
0.260045
0.260097
0.26015
0.260203
0.260255
0.260255
0.260308
0.260361
0.260414
0.260466
0.260466
0.260519
0.260572
0.260625
0.260678
0.260678
0.260731
0.260784
0.260837
0.26089
0.26089
0.260943
0.260996
0.26105
0.261103
0.261103
0.261156
0.261209
0.261263
0.261316
0.261316
0.261369
0.261423
0.261476
0.26153
0.26153
0.261583
0.261637
0.26169
0.261744
0.261744
0.261798
0.261851
0.261905
0.261959
0.261959
0.262013
0.262066
0.26212
0.262174
0.262174
0.262228
0.262282
0.262336
0.26239
0.26239
0.262444
0.262498
0.262552
0.262606
0.262606
0.262661
0.262715
0.262769
0.262823
0.262823
0.262878
0.262932
0.262987
0.263041
0.263041
0.263095
0.26315
0.263204
0.263259
0.263259
0.263314
0.263368
0.263423
0.263478
0.263478
0.263532
0.263587
0.263642
0.263697
0.263697
0.263752
0.263806
0.263861
0.263916
0.263916
0.263971
0.264026
0.264082
0.264137
0.264137
0.264192
0.264247
0.264302
0.264357
0.264357
0.264413
0.264468
0.264523
0.264579
0.264579
0.264634
0.264689
0.264745
0.2648
0.2648
0.264856
0.264912
0.264967
0.265023
0.265023
0.265079
0.265134
0.26519
0.265246
0.265246
0.265302
0.265357
0.265413
0.265469
0.265469
0.265525
0.265581
0.265637
0.265693
0.265693
0.265749
0.265805
0.265862
0.265918
0.265918
0.265974
0.26603
0.266086
0.266143
0.266143
0.266199
0.266256
0.266312
0.266368
0.266368
0.266425
0.266481
0.266538
0.266595
0.266595
0.266651
0.266708
0.266764
0.266821
0.266821
0.266878
0.266935
0.266992
0.267048
0.267048
0.267105
0.267162
0.267219
0.267276
0.267276
0.267333
0.26739
0.267447
0.267504
0.267504
0.267562
0.267619
0.267676
0.267733
0.267733
0.267791
0.267848
0.267905
0.267963
0.267963
0.26802
0.268078
0.268135
0.268193
0.268193
0.26825
0.268308
0.268365
0.268423
0.268423
0.268481
0.268538
0.268596
0.268654
0.268654
0.268712
0.26877
0.268828
0.268886
0.268886
0.268944
0.269002
0.26906
0.269118
0.269118
0.269176
0.269234
0.269292
0.26935
0.26935
0.269408
0.269467
0.269525
0.269583
0.269583
0.269642
0.2697
0.269759
0.269817
0.269817
0.269876
0.269934
0.269993
0.270051
0.270051
0.27011
0.270169
0.270227
0.270286
0.270286
0.270345
0.270404
0.270462
0.270521
0.270521
0.27058
0.270639
0.270698
0.270757
0.270757
0.270816
0.270875
0.270934
0.270994
0.270994
0.271053
0.271112
0.271171
0.27123
0.27123
0.27129
0.271349
0.271408
0.271468
0.271468
0.271527
0.271587
0.271646
0.271706
0.271706
0.271765
0.271825
0.271885
0.271944
0.271944
0.272004
0.272064
0.272124
0.272183
0.272183
0.272243
0.272303
0.272363
0.272423
0.272423
0.272483
0.272543
0.272603
0.272663
0.272663
0.272723
0.272783
0.272844
0.272904
0.272904
0.272964
0.273024
0.273085
0.273145
0.273145
0.273205
0.273266
0.273326
0.273387
0.273387
0.273447
0.273508
0.273568
0.273629
0.273629
0.27369
0.27375
0.273811
0.273872
0.273872
0.273933
0.273993
0.274054
0.274115
0.274115
0.274176
0.274237
0.274298
0.274359
0.274359
0.27442
0.274481
0.274542
0.274603
0.274603
0.274665
0.274726
0.274787
0.274848
0.274848
0.27491
0.274971
0.275032
0.275094
0.275094
0.275155
0.275217
0.275278
0.27534
0.27534
0.275401
0.275463
0.275525
0.275586
0.275586
0.275648
0.27571
0.275772
0.275833
0.275833
0.275895
0.275957
0.276019
0.276081
0.276081
0.276143
0.276205
0.276267
0.276329
0.276329
0.276391
0.276454
0.276516
0.276578
0.276578
0.27664
0.276703
0.276765
0.276827
0.276827
0.27689
0.276952
0.277014
0.277077
0.277077
0.27714
0.277202
0.277265
0.277327
0.277327
0.27739
0.277453
0.277515
0.277578
0.277578
0.277641
0.277704
0.277767
0.277829
0.277829
0.277892
0.277955
0.278018
0.278081
0.278081
0.278144
0.278208
0.278271
0.278334
0.278334
0.278397
0.27846
0.278524
0.278587
0.278587
0.27865
0.278714
0.278777
0.27884
0.27884
0.278904
0.278967
0.279031
0.279094
0.279094
0.279158
0.279222
0.279285
0.279349
0.279349
0.279413
0.279476
0.27954
0.279604
0.279604
0.279668
0.279732
0.279796
0.27986
0.27986
0.279924
0.279988
0.280052
0.280116
0.280116
0.28018
0.280244
0.280308
0.280373
0.280373
0.280437
0.280501
0.280566
0.28063
0.28063
0.280694
0.280759
0.280823
0.280888
0.280888
0.280952
0.281017
0.281081
0.281146
0.281146
0.281211
0.281275
0.28134
0.281405
0.281405
0.28147
0.281534
0.281599
0.281664
0.281664
0.281729
0.281794
0.281859
0.281924
0.281924
0.281989
0.282054
0.282119
0.282185
0.282185
0.28225
0.282315
0.28238
0.282446
0.282446
0.282511
0.282576
0.282642
0.282707
0.282707
0.282773
0.282838
0.282904
0.282969
0.282969
0.283035
0.2831
0.283166
0.283232
0.283232
0.283297
0.283363
0.283429
0.283495
0.283495
0.283561
0.283627
0.283693
0.283758
0.283758
0.283824
0.283891
0.283957
0.284023
0.284023
0.284089
0.284155
0.284221
0.284287
0.284287
0.284354
0.28442
0.284486
0.284553
0.284553
0.284619
0.284685
0.284752
0.284818
0.284818
0.284885
0.284951
0.285018
0.285085
0.285085
0.285151
0.285218
0.285285
0.285352
0.285352
0.285418
0.285485
0.285552
0.285619
0.285619
0.285686
0.285753
0.28582
0.285887
0.285887
0.285954
0.286021
0.286088
0.286155
0.286155
0.286222
0.28629
0.286357
0.286424
0.286424
0.286492
0.286559
0.286626
0.286694
0.286694
0.286761
0.286829
0.286896
0.286964
0.286964
0.287031
0.287099
0.287167
0.287234
0.287234
0.287302
0.28737
0.287438
0.287505
0.287505
0.287573
0.287641
0.287709
0.287777
0.287777
0.287845
0.287913
0.287981
0.288049
0.288049
0.288117
0.288186
0.288254
0.288322
0.288322
0.28839
0.288458
0.288527
0.288595
0.288595
0.288664
0.288732
0.2888
0.288869
0.288869
0.288937
0.289006
0.289075
0.289143
0.289143
0.289212
0.28928
0.289349
0.289418
0.289418
0.289487
0.289556
0.289624
0.289693
0.289693
0.289762
0.289831
0.2899
0.289969
0.289969
0.290038
0.290107
0.290176
0.290246
0.290246
0.290315
0.290384
0.290453
0.290523
0.290523
0.290592
0.290661
0.290731
0.2908
0.2908
0.290869
0.290939
0.291008
0.291078
0.291078
0.291148
0.291217
0.291287
0.291356
0.291356
0.291426
0.291496
0.291566
0.291636
0.291636
0.291705
0.291775
0.291845
0.291915
0.291915
0.291985
0.292055
0.292125
0.292195
0.292195
0.292265
0.292335
0.292406
0.292476
0.292476
0.292546
0.292616
0.292687
0.292757
0.292757
0.292827
0.292898
0.292968
0.293039
0.293039
0.293109
0.29318
0.29325
0.293321
0.293321
0.293392
0.293462
0.293533
0.293604
0.293604
0.293674
0.293745
0.293816
0.293887
0.293887
0.293958
0.294029
0.2941
0.294171
0.294171
0.294242
0.294313
0.294384
0.294455
0.294455
0.294526
0.294597
0.294669
0.29474
0.29474
0.294811
0.294883
0.294954
0.295025
0.295025
0.295097
0.295168
0.29524
0.295311
0.295311
0.295383
0.295454
0.295526
0.295598
0.295598
0.295669
0.295741
0.295813
0.295885
0.295885
0.295957
0.296028
0.2961
0.296172
0.296172
0.296244
0.296316
0.296388
0.29646
0.29646
0.296532
0.296604
0.296677
0.296749
0.296749
0.296821
0.296893
0.296966
0.297038
0.297038
0.29711
0.297183
0.297255
0.297328
0.297328
0.2974
0.297473
0.297545
0.297618
0.297618
0.29769
0.297763
0.297836
0.297908
0.297908
0.297981
0.298054
0.298127
0.2982
0.2982
0.298272
0.298345
0.298418
0.298491
0.298491
0.298564
0.298637
0.29871
0.298784
0.298784
0.298857
0.29893
0.299003
0.299076
0.299076
0.29915
0.299223
0.299296
0.29937
0.29937
0.299443
0.299516
0.29959
0.299663
0.299663
0.299737
0.299811
0.299884
0.299958
0.299958
0.300031
0.300105
0.300179
0.300253
0.300253
0.300326
0.3004
0.300474
0.300548
0.300548
0.300622
0.300696
0.30077
0.300844
0.300844
0.300918
0.300992
0.301066
0.30114
0.30114
0.301215
0.301289
0.301363
0.301437
0.301437
0.301512
0.301586
0.301661
0.301735
0.301735
0.301809
0.301884
0.301958
0.302033
0.302033
0.302108
0.302182
0.302257
0.302332
0.302332
0.302406
0.302481
0.302556
0.302631
0.302631
0.302705
0.30278
0.302855
0.30293
0.30293
0.303005
0.30308
0.303155
0.30323
0.30323
0.303305
0.303381
0.303456
0.303531
0.303531
0.303606
0.303682
0.303757
0.303832
0.303832
0.303908
0.303983
0.304058
0.304134
0.304134
0.304209
0.304285
0.304361
0.304436
0.304436
0.304512
0.304587
0.304663
0.304739
0.304739
0.304815
0.30489
0.304966
0.305042
0.305042
0.305118
0.305194
0.30527
0.305346
0.305346
0.305422
0.305498
0.305574
0.30565
0.30565
0.305726
0.305803
0.305879
0.305955
0.305955
0.306031
0.306108
0.306184
0.306261
0.306261
0.306337
0.306413
0.30649
0.306566
0.306566
0.306643
0.30672
0.306796
0.306873
0.306873
0.306949
0.307026
0.307103
0.30718
0.30718
0.307257
0.307333
0.30741
0.307487
0.307487
0.307564
0.307641
0.307718
0.307795
0.307795
0.307872
0.307949
0.308027
0.308104
0.308104
0.308181
0.308258
0.308335
0.308413
0.308413
0.30849
0.308567
0.308645
0.308722
0.308722
0.3088
0.308877
0.308955
0.309032
0.309032
0.30911
0.309188
0.309265
0.309343
0.309343
0.309421
0.309498
0.309576
0.309654
0.309654
0.309732
0.30981
0.309888
0.309966
0.309966
0.310044
0.310122
0.3102
0.310278
0.310278
0.310356
0.310434
0.310512
0.310591
0.310591
0.310669
0.310747
0.310825
0.310904
0.310904
0.310982
0.311061
0.311139
0.311217
0.311217
0.311296
0.311375
0.311453
0.311532
0.311532
0.31161
0.311689
0.311768
0.311846
0.311846
0.311925
0.312004
0.312083
0.312162
0.312162
0.312241
0.31232
0.312399
0.312478
0.312478
0.312557
0.312636
0.312715
0.312794
0.312794
0.312873
0.312952
0.313031
0.313111
0.313111
0.31319
0.313269
0.313349
0.313428
0.313428
0.313508
0.313587
0.313666
0.313746
0.313746
0.313826
0.313905
0.313985
0.314064
0.314064
0.314144
0.314224
0.314304
0.314383
0.314383
0.314463
0.314543
0.314623
0.314703
0.314703
0.314783
0.314863
0.314943
0.315023
0.315023
0.315103
0.315183
0.315263
0.315343
0.315343
0.315423
0.315504
0.315584
0.315664
0.315664
0.315745
0.315825
0.315905
0.315986
0.315986
0.316066
0.316147
0.316227
0.316308
0.316308
0.316388
0.316469
0.31655
0.31663
0.31663
0.316711
0.316792
0.316873
0.316953
0.316953
0.317034
0.317115
0.317196
0.317277
0.317277
0.317358
0.317439
0.31752
0.317601
0.317601
0.317682
0.317763
0.317845
0.317926
0.317926
0.318007
0.318088
0.31817
0.318251
0.318251
0.318332
0.318414
0.318495
0.318577
0.318577
0.318658
0.31874
0.318821
0.318903
0.318903
0.318984
0.319066
0.319148
0.319229
0.319229
0.319311
0.319393
0.319475
0.319557
0.319557
0.319639
0.31972
0.319802
0.319884
0.319884
0.319966
0.320048
0.320131
0.320213
0.320213
0.320295
0.320377
0.320459
0.320541
0.320541
0.320624
0.320706
0.320788
0.320871
0.320871
0.320953
0.321036
0.321118
0.3212
0.3212
0.321283
0.321366
0.321448
0.321531
0.321531
0.321613
0.321696
0.321779
0.321862
0.321862
0.321944
0.322027
0.32211
0.322193
0.322193
0.322276
0.322359
0.322442
0.322525
0.322525
0.322608
0.322691
0.322774
0.322857
0.322857
0.32294
0.323024
0.323107
0.32319
0.32319
0.323273
0.323357
0.32344
0.323524
0.323524
0.323607
0.32369
0.323774
0.323857
0.323857
0.323941
0.324025
0.324108
0.324192
0.324192
0.324276
0.324359
0.324443
0.324527
0.324527
0.324611
0.324694
0.324778
0.324862
0.324862
0.324946
0.32503
0.325114
0.325198
0.325198
0.325282
0.325366
0.325451
0.325535
0.325535
0.325619
0.325703
0.325787
0.325872
0.325872
0.325956
0.32604
0.326125
0.326209
0.326209
0.326294
0.326378
0.326463
0.326547
0.326547
0.326632
0.326717
0.326801
0.326886
0.326886
0.326971
0.327055
0.32714
0.327225
0.327225
0.32731
0.327395
0.32748
0.327565
0.327565
0.327649
0.327735
0.32782
0.327905
0.327905
0.32799
0.328075
0.32816
0.328245
0.328245
0.32833
0.328416
0.328501
0.328586
0.328586
0.328672
0.328757
0.328842
0.328928
0.328928
0.329013
0.329099
0.329185
0.32927
0.32927
0.329356
0.329441
0.329527
0.329613
0.329613
0.329698
0.329784
0.32987
0.329956
0.329956
0.330042
0.330128
0.330214
0.3303
0.3303
0.330386
0.330472
0.330558
0.330644
0.330644
0.33073
0.330816
0.330902
0.330988
0.330988
0.331075
0.331161
0.331247
0.331334
0.331334
0.33142
0.331506
0.331593
0.331679
0.331679
0.331766
0.331852
0.331939
0.332026
0.332026
0.332112
0.332199
0.332286
0.332372
0.332372
0.332459
0.332546
0.332633
0.33272
0.33272
0.332806
0.332893
0.33298
0.333067
0.333067
0.333154
0.333241
0.333329
0.333416
0.333416
0.333503
0.33359
0.333677
0.333764
0.333764
0.333852
0.333939
0.334026
0.334114
0.334114
0.334201
0.334289
0.334376
0.334463
0.334463
0.334551
0.334639
0.334726
0.334814
0.334814
0.334901
0.334989
0.335077
0.335165
0.335165
0.335252
0.33534
0.335428
0.335516
0.335516
0.335604
0.335692
0.33578
0.335868
0.335868
0.335956
0.336044
0.336132
0.33622
0.33622
0.336308
0.336396
0.336485
0.336573
0.336573
0.336661
0.33675
0.336838
0.336926
0.336926
0.337015
0.337103
0.337192
0.33728
0.33728
0.337369
0.337457
0.337546
0.337635
0.337635
0.337723
0.337812
0.337901
0.337989
0.337989
0.338078
0.338167
0.338256
0.338345
0.338345
0.338434
0.338523
0.338612
0.338701
0.338701
0.33879
0.338879
0.338968
0.339057
0.339057
0.339146
0.339236
0.339325
0.339414
0.339414
0.339503
0.339593
0.339682
0.339771
0.339771
0.339861
0.33995
0.34004
0.340129
0.340129
0.340219
0.340309
0.340398
0.340488
0.340488
0.340578
0.340667
0.340757
0.340847
0.340847
0.340937
0.341026
0.341116
0.341206
0.341206
0.341296
0.341386
0.341476
0.341566
0.341566
0.341656
0.341746