<?xml version="1.0"?>
<VTKFile type="UnstructuredGrid" version="0.1" byte_order="LittleEndian">
<UnstructuredGrid>
<Piece NumberOfPoints="5000" NumberOfCells="4000">
<PointData Scalars="Reaction 0">
<DataArray type="Float32" Name="Reaction 0" format="ascii">
0.574877
0.574877
0.574877
0.574877
0.574877
0.574877
0.574877
0.574877
0.574877
0.574877
0.574877
0.574877
0.574878
0.574878
0.574878
0.574878
0.574878
0.574878
0.574878
0.574878
0.574878
0.574878
0.574878
0.574878
0.574878
0.574878
0.574878
0.574878
0.574879
0.574879
0.574879
0.574879
0.574879
0.574879
0.574879
0.574879
0.574879
0.574879
0.57488
0.57488
0.57488
0.57488
0.57488
0.57488
0.57488
0.57488
0.574881
0.574881
0.574881
0.574881
0.574881
0.574881
0.574882
0.574882
0.574882
0.574882
0.574882
0.574883
0.574883
0.574883
0.574883
0.574883
0.574883
0.574884
0.574884
0.574884
0.574884
0.574885
0.574885
0.574885
0.574885
0.574885
0.574886
0.574886
0.574886
0.574886
0.574887
0.574887
0.574887
0.574887
0.574887
0.574888
0.574888
0.574888
0.574889
0.574889
0.574889
0.574889
0.57489
0.57489
0.57489
0.574891
0.574891
0.574891
0.574892
0.574892
0.574892
0.574892
0.574893
0.574893
0.574893
0.574894
0.574894
0.574894
0.574895
0.574895
0.574895
0.574896
0.574896
0.574897
0.574897
0.574897
0.574897
0.574898
0.574898
0.574898
0.574899
0.574899
0.5749
0.5749
0.5749
0.574901
0.574901
0.574902
0.574902
0.574902
0.574903
0.574903
0.574904
0.574904
0.574904
0.574905
0.574905
0.574906
0.574906
0.574906
0.574907
0.574907
0.574908
0.574908
0.574908
0.574909
0.57491
0.57491
0.574911
0.574911
0.574911
0.574912
0.574913
0.574913
0.574913
0.574914
0.574914
0.574915
0.574916
0.574916
0.574916
0.574917
0.574917
0.574918
0.574918
0.574919
0.574919
0.57492
0.574921
0.574921
0.574921
0.574922
0.574923
0.574923
0.574923
0.574924
0.574925
0.574925
0.574926
0.574926
0.574927
0.574927
0.574928
0.574929
0.574929
0.57493
0.57493
0.574931
0.574932
0.574932
0.574933
0.574933
0.574934
0.574935
0.574935
0.574936
0.574936
0.574937
0.574938
0.574938
0.574939
0.574939
0.57494
0.574941
0.574941
0.574942
0.574943
0.574943
0.574944
0.574944
0.574945
0.574946
0.574947
0.574948
0.574948
0.574948
0.574949
0.57495
0.574951
0.574951
0.574952
0.574953
0.574954
0.574955
0.574955
0.574955
0.574956
0.574957
0.574958
0.574958
0.574959
0.57496
0.574961
0.574962
0.574962
0.574963
0.574964
0.574964
0.574965
0.574965
0.574966
0.574967
0.574968
0.574969
0.574969
0.57497
0.574971
0.574972
0.574973
0.574973
0.574974
0.574975
0.574976
0.574977
0.574977
0.574978
0.574979
0.57498
0.574981
0.574981
0.574982
0.574983
0.574984
0.574985
0.574985
0.574986
0.574987
0.574988
0.574989
0.574989
0.574991
0.574992
0.574993
0.574994
0.574994
0.574995
0.574996
0.574997
0.574998
0.574998
0.574999
0.575
0.575001
0.575003
0.575003
0.575004
0.575005
0.575006
0.575007
0.575007
0.575008
0.575009
0.575011
0.575012
0.575012
0.575013
0.575014
0.575015
0.575016
0.575016
0.575018
0.575019
0.57502
0.575021
0.575021
0.575022
0.575024
0.575025
0.575026
0.575026
0.575027
0.575029
0.57503
0.575031
0.575031
0.575032
0.575034
0.575035
0.575036
0.575036
0.575037
0.575039
0.57504
0.575041
0.575041
0.575043
0.575044
0.575045
0.575046
0.575046
0.575048
0.575049
0.57505
0.575052
0.575052
0.575053
0.575054
0.575056
0.575057
0.575057
0.575058
0.57506
0.575061
0.575062
0.575062
0.575064
0.575065
0.575067
0.575068
0.575068
0.575069
0.575071
0.575072
0.575074
0.575074
0.575075
0.575076
0.575078
0.575079
0.575079
0.575081
0.575082
0.575084
0.575085
0.575085
0.575086
0.575088
0.575089
0.575091
0.575091
0.575092
0.575094
0.575095
0.575097
0.575097
0.575098
0.5751
0.575101
0.575103
0.575103
0.575104
0.575106
0.575107
0.575109
0.575109
0.57511
0.575112
0.575114
0.575115
0.575115
0.575117
0.575118
0.57512
0.575121
0.575121
0.575123
0.575125
0.575126
0.575128
0.575128
0.575129
0.575131
0.575133
0.575134
0.575134
0.575136
0.575138
0.575139
0.575141
0.575141
0.575142
0.575144
0.575146
0.575147
0.575147
0.575149
0.575151
0.575152
0.575154
0.575154
0.575156
0.575158
0.575159
0.575161
0.575161
0.575163
0.575164
0.575166
0.575168
0.575168
0.57517
0.575171
0.575173
0.575175
0.575175
0.575176
0.575178
0.57518
0.575182
0.575182
0.575184
0.575185
0.575187
0.575189
0.575189
0.575191
0.575192
0.575194
0.575196
0.575196
0.575198
0.5752
0.575202
0.575203
0.575203
0.575205
0.575207
0.575209
0.575211
0.575211
0.575213
0.575215
0.575216
0.575218
0.575218
0.57522
0.575222
0.575224
0.575226
0.575226
0.575228
0.57523
0.575232
0.575233
0.575233
0.575235
0.575237
0.575239
0.575241
0.575241
0.575243
0.575245
0.575247
0.575249
0.575249
0.575251
0.575253
0.575255
0.575257
0.575257
0.575259
0.575261
0.575263
0.575265
0.575265
0.575267
0.575269
0.575271
0.575273
0.575273
0.575275
0.575277
0.575279
0.575281
0.575281
0.575283
0.575285
0.575287
0.575289
0.575289
0.575291
0.575293
0.575296
0.575298
0.575298
0.5753
0.575302
0.575304
0.575306
0.575306
0.575308
0.57531
0.575312
0.575315
0.575315
0.575317
0.575319
0.575321
0.575323
0.575323
0.575325
0.575327
0.57533
0.575332
0.575332
0.575334
0.575336
0.575338
0.575341
0.575341
0.575343
0.575345
0.575347
0.575349
0.575349
0.575352
0.575354
0.575356
0.575358
0.575358
0.575361
0.575363
0.575365
0.575367
0.575367
0.57537
0.575372
0.575374
0.575376
0.575376
0.575379
0.575381
0.575383
0.575386
0.575386
0.575388
0.57539
0.575393
0.575395
0.575395
0.575397
0.5754
0.575402
0.575404
0.575404
0.575407
0.575409
0.575411
0.575414
0.575414
0.575416
0.575419
0.575421
0.575423
0.575423
0.575426
0.575428
0.575431
0.575433
0.575433
0.575435
0.575438
0.57544
0.575443
0.575443
0.575445
0.575448
0.57545
0.575453
0.575453
0.575455
0.575458
0.57546
0.575463
0.575463
0.575465
0.575468
0.57547
0.575473
0.575473
0.575475
0.575478
0.57548
0.575483
0.575483
0.575485
0.575488
0.57549
0.575493
0.575493
0.575495
0.575498
0.575501
0.575503
0.575503
0.575506
0.575508
0.575511
0.575513
0.575513
0.575516
0.575519
0.575521
0.575524
0.575524
0.575527
0.575529
0.575532
0.575534
0.575534
0.575537
0.57554
0.575542
0.575545
0.575545
0.575548
0.57555
0.575553
0.575556
0.575556
0.575559
0.575561
0.575564
0.575567
0.575567
0.575569
0.575572
0.575575
0.575578
0.575578
0.57558
0.575583
0.575586
0.575589
0.575589
0.575591
0.575594
0.575597
0.5756
0.5756
0.575602
0.575605
0.575608
0.575611
0.575611
0.575614
0.575617
0.575619
0.575622
0.575622
0.575625
0.575628
0.575631
0.575634
0.575634
0.575636
0.575639
0.575642
0.575645
0.575645
0.575648
0.575651
0.575654
0.575657
0.575657
0.57566
0.575662
0.575665
0.575668
0.575668
0.575671
0.575674
0.575677
0.57568
0.57568
0.575683
0.575686
0.575689
0.575692
0.575692
0.575695
0.575698
0.575701
0.575704
0.575704
0.575707
0.57571
0.575713
0.575716
0.575716
0.575719
0.575722
0.575725
0.575728
0.575728
0.575731
0.575734
0.575737
0.57574
0.57574
0.575743
0.575746
0.575749
0.575753
0.575753
0.575756
0.575759
0.575762
0.575765
0.575765
0.575768
0.575771
0.575774
0.575777
0.575777
0.575781
0.575784
0.575787
0.57579
0.57579
0.575793
0.575796
0.5758
0.575803
0.575803
0.575806
0.575809
0.575812
0.575816
0.575816
0.575819
0.575822
0.575825
0.575828
0.575828
0.575832
0.575835
0.575838
0.575841
0.575841
0.575845
0.575848
0.575851
0.575855
0.575855
0.575858
0.575861
0.575864
0.575868
0.575868
0.575871
0.575874
0.575878
0.575881
0.575881
0.575884
0.575888
0.575891
0.575894
0.575894
0.575898
0.575901
0.575904
0.575908
0.575908
0.575911
0.575914
0.575918
0.575921
0.575921
0.575925
0.575928
0.575931
0.575935
0.575935
0.575938
0.575942
0.575945
0.575949
0.575949
0.575952
0.575956
0.575959
0.575963
0.575963
0.575966
0.57597
0.575973
0.575977
0.575977
0.57598
0.575984
0.575987
0.575991
0.575991
0.575994
0.575998
0.576001
0.576005
0.576005
0.576009
0.576012
0.576016
0.576019
0.576019
0.576023
0.576026
0.57603
0.576034
0.576034
0.576037
0.576041
0.576045
0.576048
0.576048
0.576052
0.576055
0.576059
0.576063
0.576063
0.576066
0.57607
0.576074
0.576077
0.576077
0.576081
0.576085
0.576088
0.576092
0.576092
0.576096
0.5761
0.576103
0.576107
0.576107
0.576111
0.576115
0.576118
0.576122
0.576122
0.576126
0.57613
0.576133
0.576137
0.576137
0.576141
0.576145
0.576148
0.576152
0.576152
0.576156
0.57616
0.576164
0.576168
0.576168
0.576171
0.576175
0.576179
0.576183
0.576183
0.576187
0.576191
0.576195
0.576198
0.576198
0.576202
0.576206
0.57621
0.576214
0.576214
0.576218
0.576222
0.576226
0.57623
0.57623
0.576234
0.576238
0.576242
0.576246
0.576246
0.57625
0.576254
0.576257
0.576261
0.576261
0.576265
0.576269
0.576273
0.576277
0.576277
0.576282
0.576286
0.57629
0.576294
0.576294
0.576298
0.576302
0.576306
0.57631
0.57631
0.576314
0.576318
0.576322
0.576326
0.576326
0.57633
0.576334
0.576338
0.576343
0.576343
0.576347
0.576351
0.576355
0.576359
0.576359
0.576363
0.576367
0.576372
0.576376
0.576376
0.57638
0.576384
0.576388
0.576393
0.576393
0.576397
0.576401
0.576405
0.576409
0.576409
0.576414
0.576418
0.576422
0.576426
0.576426
0.576431
0.576435
0.576439
0.576443
0.576443
0.576448
0.576452
0.576456
0.576461
0.576461
0.576465
0.576469
0.576474
0.576478
0.576478
0.576482
0.576487
0.576491
0.576495
0.576495
0.5765
0.576504
0.576508
0.576513
0.576513
0.576517
0.576522
0.576526
0.57653
0.57653
0.576535
0.576539
0.576544
0.576548
0.576548
0.576553
0.576557
0.576562
0.576566
0.576566
0.576571
0.576575
0.576579
0.576584
0.576584
0.576589
0.576593
0.576598
0.576602
0.576602
0.576607
0.576611
0.576616
0.57662
0.57662
0.576625
0.576629
0.576634
0.576639
0.576639
0.576643
0.576648
0.576652
0.576657
0.576657
0.576662
0.576666
0.576671
0.576675
0.576675
0.57668
0.576685
0.576689
0.576694
0.576694
0.576699
0.576703
0.576708
0.576713
0.576713
0.576717
0.576722
0.576727
0.576732
0.576732
0.576736
0.576741
0.576746
0.57675
0.57675
0.576755
0.57676
0.576765
0.576769
0.576769
0.576774
0.576779
0.576784
0.576789
0.576789
0.576793
0.576798
0.576803
0.576808
0.576808
0.576813
0.576817
0.576822
0.576827
0.576827
0.576832
0.576837
0.576842
0.576847
0.576847
0.576852
0.576857
0.576862
0.576867
0.576867
0.576872
0.576877
0.576881
0.576886
0.576886
0.576891
0.576896
0.576901
0.576906
0.576906
0.576911
0.576916
0.576921
0.576926
0.576926
0.576931
0.576936
0.576941
0.576946
0.576946
0.576952
0.576957
0.576962
0.576967
0.576967
0.576972
0.576977
0.576982
0.576987
0.576987
0.576992
0.576997
0.577002
0.577008
0.577008
0.577013
0.577018
0.577023
0.577028
0.577028
0.577033
0.577038
0.577044
0.577049
0.577049
0.577054
0.577059
0.577064
0.57707
0.57707
0.577075
0.57708
0.577085
0.577091
0.577091
0.577096
0.577101
0.577106
0.577112
0.577112
0.577117
0.577122
0.577128
0.577133
0.577133
0.577138
0.577144
0.577149
0.577154
0.577154
0.57716
0.577165
0.57717
0.577176
0.577176
0.577181
0.577186
0.577192
0.577197
0.577197
0.577203
0.577208
0.577213
0.577219
0.577219
0.577224
0.57723
0.577235
0.577241
0.577241
0.577246
0.577252
0.577257
0.577263
0.577263
0.577268
0.577274
0.577279
0.577285
0.577285
0.57729
0.577296
0.577301
0.577307
0.577307
0.577312
0.577318
0.577323
0.577329
0.577329
0.577335
0.57734
0.577346
0.577351
0.577351
0.577357
0.577363
0.577368
0.577374
0.577374
0.57738
0.577385
0.577391
0.577397
0.577397
0.577402
0.577408
0.577414
0.577419
0.577419
0.577425
0.577431
0.577437
0.577442
0.577442
0.577448
0.577454
0.57746
0.577465
0.577465
0.577471
0.577477
0.577483
0.577489
0.577489
0.577494
0.5775
0.577506
0.577512
0.577512
0.577518
0.577524
0.577529
0.577535
0.577535
0.577541
0.577547
0.577553
0.577559
0.577559
0.577565
0.577571
0.577577
0.577583
0.577583
0.577589
0.577594
0.5776
0.577606
0.577606
0.577612
0.577618
0.577624
0.57763
0.57763
0.577636
0.577642
0.577648
0.577654
0.577654
0.57766
0.577666
0.577673
0.577679
0.577679
0.577685
0.577691
0.577697
0.577703
0.577703
0.577709
0.577715
0.577721
0.577727
0.577727
0.577733
0.577739
0.577746
0.577752
0.577752
0.577758
0.577764
0.57777
0.577776
0.577776
0.577783
0.577789
0.577795
0.577801
0.577801
0.577808
0.577814
0.57782
0.577826
0.577826
0.577833
0.577839
0.577845
0.577852
0.577852
0.577858
0.577864
0.577871
0.577877
0.577877
0.577883
0.57789
0.577896
0.577902
0.577902
0.577909
0.577915
0.577922
0.577928
0.577928
0.577934
0.577941
0.577947
0.577954
0.577954
0.57796
0.577967
0.577973
0.57798
0.57798
0.577986
0.577993
0.577999
0.578006
0.578006
0.578012
0.578019
0.578025
0.578032
0.578032
0.578038
0.578045
0.578051
0.578058
0.578058
0.578064
0.578071
0.578078
0.578084
0.578084
0.578091
0.578097
0.578104
0.578111
0.578111
0.578117
0.578124
0.578131
0.578137
0.578137
0.578144
0.578151
0.578157
0.578164
0.578164
0.578171
0.578178
0.578184
0.578191
0.578191
0.578198
0.578205
0.578211
0.578218
0.578218
0.578225
0.578232
0.578239
0.578245
0.578245
0.578252
0.578259
0.578266
0.578273
0.578273
0.57828
0.578286
0.578293
0.5783
0.5783
0.578307
0.578314
0.578321
0.578328
0.578328
0.578335
0.578342
0.578349
0.578356
0.578356
0.578363
0.57837
0.578377
0.578384
0.578384
0.578391
0.578398
0.578405
0.578412
0.578412
0.578419
0.578426
0.578433
0.57844
0.57844
0.578447
0.578454
0.578461
0.578468
0.578468
0.578475
0.578483
0.57849
0.578497
0.578497
0.578504
0.578511
0.578518
0.578525
0.578525
0.578533
0.57854
0.578547
0.578554
0.578554
0.578562
0.578569
0.578576
0.578583
0.578583
0.578591
0.578598
0.578605
0.578612
0.578612
0.57862
0.578627
0.578634
0.578642
0.578642
0.578649
0.578656
0.578664
0.578671
0.578671
0.578678
0.578686
0.578693
0.5787
0.5787
0.578708
0.578715
0.578723
0.57873
0.57873
0.578737
0.578745
0.578752
0.57876
0.57876
0.578767
0.578775
0.578782
0.57879
0.57879
0.578797
0.578805
0.578812
0.57882
0.57882
0.578828
0.578835
0.578843
0.57885
0.57885
0.578858
0.578866
0.578873
0.578881
0.578881
0.578889
0.578896
0.578904
0.578912
0.578912
0.578919
0.578927
0.578935
0.578943
0.578943
0.57895
0.578958
0.578966
0.578974
0.578974
0.578981
0.578989
0.578997
0.579005
0.579005
0.579012
0.57902
0.579028
0.579036
0.579036
0.579044
0.579052
0.579059
0.579067
0.579067
0.579075
0.579083
0.579091
0.579099
0.579099
0.579107
0.579115
0.579123
0.579131
0.579131
0.579139
0.579147
0.579155
0.579163
0.579163
0.579171
0.579179
0.579187
0.579195
0.579195
0.579203
0.579211
0.579219
0.579227
0.579227
0.579235
0.579243
0.579251
0.579259
0.579259
0.579267
0.579275
0.579284
0.579292
0.579292
0.5793
0.579308
0.579316
0.579324
0.579324
0.579333
0.579341
0.579349
0.579357
0.579357
0.579366
0.579374
0.579382
0.57939
0.57939
0.579399
0.579407
0.579415
0.579424
0.579424
0.579432
0.57944
0.579449
0.579457
0.579457
0.579465
0.579474
0.579482
0.57949
0.57949
0.579499
0.579507
0.579516
0.579524
0.579524
0.579533
0.579541
0.57955
0.579558
0.579558
0.579567
0.579575
0.579584
0.579592
0.579592
0.579601
0.579609
0.579618
0.579626
0.579626
0.579635
0.579643
0.579652
0.579661
0.579661
0.579669
0.579678
0.579686
0.579695
0.579695
0.579704
0.579712
0.579721
0.57973
0.57973
0.579738
0.579747
0.579756
0.579765
0.579765
0.579773
0.579782
0.579791
0.5798
0.5798
0.579808
0.579817
0.579826
0.579835
0.579835
0.579843
0.579852
0.579861
0.57987
0.57987
0.579879
0.579888
0.579897
0.579906
0.579906
0.579915
0.579923
0.579932
0.579941
0.579941
0.57995
0.57996
0.579969
0.579978
0.579978
0.579987
0.579996
0.580005
0.580014
0.580014
0.580023
0.580032
0.580041
0.58005
0.58005
0.580059
0.580068
0.580077
0.580087
0.580087
0.580096
0.580105
0.580114
0.580123
0.580123
0.580132
0.580142
0.580151
0.58016
0.58016
0.580169
0.580179
0.580188
0.580197
0.580197
0.580206
0.580216
0.580225
0.580234
0.580234
0.580244
0.580253
0.580262
0.580272
0.580272
0.580281
0.58029
0.5803
0.580309
0.580309
0.580319
0.580328
0.580337
0.580347
0.580347
0.580356
0.580366
0.580375
0.580385
0.580385
0.580394
0.580404
0.580413
0.580423
0.580423
0.580432
0.580442
0.580452
0.580461
0.580461
0.580471
0.58048
0.58049
0.5805
0.5805
0.580509
0.580519
0.580529
0.580538
0.580538
0.580548
0.580558
0.580567
0.580577
0.580577
0.580587
0.580597
0.580606
0.580616
0.580616
0.580626
0.580636
0.580646
0.580655
0.580655
0.580665
0.580675
0.580685
0.580695
0.580695
0.580705
0.580715
0.580725
0.580734
0.580734
0.580744
0.580754
0.580764
0.580774
0.580774
0.580784
0.580794
0.580804
0.580814
0.580814
0.580824
0.580834
0.580844
0.580854
0.580854
0.580864
0.580875
0.580885
0.580895
0.580895
0.580905
0.580915
0.580925
0.580935
0.580935
0.580945
0.580955
0.580966
0.580976
0.580976
0.580986
0.580996
0.581006
0.581017
0.581017
0.581027
0.581037
0.581047
0.581058
0.581058
0.581068
0.581078
0.581089
0.581099
0.581099
0.58111
0.58112
0.581131
0.581141
0.581141
0.581151
0.581162
0.581172
0.581183
0.581183
0.581193
0.581204
0.581214
0.581225
0.581225
0.581235
0.581246
0.581257
0.581267
0.581267
0.581278
0.581288
0.581299
0.58131
0.58131
0.58132
0.581331
0.581341
0.581352
0.581352
0.581363
0.581373
0.581384
0.581395
0.581395
0.581406
0.581416
0.581427
0.581438
0.581438
0.581449
0.581459
0.58147
0.581481
0.581481
0.581492
0.581503
0.581514
0.581524
0.581524
0.581535
0.581546
0.581557
0.581568
0.581568
0.581579
0.58159
0.581601
0.581612
0.581612
0.581623
0.581634
0.581645
0.581656
0.581656
0.581667
0.581678
0.581689
0.5817
0.5817
0.581711
0.581722
0.581733
0.581745
0.581745
0.581756
0.581767
0.581778
0.581789
0.581789
0.5818
0.581812
0.581823
0.581834
0.581834
0.581845
0.581857
0.581868
0.581879
0.581879
0.58189
0.581902
0.581913
0.581924
0.581924
0.581936
0.581947
0.581959
0.58197
0.58197
0.581981
0.581993
0.582004
0.582016
0.582016
0.582027
0.582039
0.58205
0.582062
0.582062
0.582073
0.582085
0.582096
0.582108
0.582108
0.582119
0.582131
0.582142
0.582154
0.582154
0.582166
0.582177
0.582189
0.5822
0.5822
0.582212
0.582224
0.582235
0.582247
0.582247
0.582259
0.58227
0.582282
0.582294
0.582294
0.582306
0.582318
0.58233
0.582342
0.582342
0.582353
0.582365
0.582377
0.582389
0.582389
0.582401
0.582413
0.582425
0.582437
0.582437
0.582449
0.582461
0.582473
0.582485
0.582485
0.582497
0.582509
0.582521
0.582533
0.582533
0.582545
0.582558
0.58257
0.582582
0.582582
0.582594
0.582606
0.582618
0.58263
0.58263
0.582643
0.582655
0.582667
0.582679
0.582679
0.582692
0.582704
0.582716
0.582728
0.582728
0.582741
0.582753
0.582765
0.582778
0.582778
0.58279
0.582802
0.582815
0.582827
0.582827
0.58284
0.582852
0.582865
0.582877
0.582877
0.58289
0.582902
0.582915
0.582927
0.582927
0.58294
0.582952
0.582965
0.582977
0.582977
0.58299
0.583003
0.583015
0.583028
0.583028
0.583041
0.583053
0.583066
0.583079
0.583079
0.583091
0.583104
0.583117
0.58313
0.58313
0.583142
0.583155
0.583168
0.583181
0.583181
0.583194
0.583207
0.583219
0.583232
0.583232
0.583245
0.583258
0.583271
0.583284
0.583284
0.583297
0.58331
0.583323
0.583336
0.583336
0.583349
0.583362
0.583375
0.583388
0.583388
0.583401
0.583414
0.583427
0.58344
0.58344
0.583454
0.583467
0.58348
0.583493
0.583493
0.583506
0.583519
0.583532
0.583546
0.583546
0.583559
0.583572
0.583585
0.583599
0.583599
0.583612
0.583625
0.583639
0.583652
0.583652
0.583666
0.583679
0.583693
0.583706
0.583706
0.58372
0.583733
0.583747
0.58376
0.58376
0.583774
0.583787
0.583801
0.583815
0.583815
0.583828
0.583842
0.583855
0.583869
0.583869
0.583883
0.583896
0.58391
0.583924
0.583924
0.583938
0.583951
0.583965
0.583979
0.583979
0.583993
0.584006
0.58402
0.584034
0.584034
0.584048
0.584062
0.584076
0.58409
0.58409
0.584103
0.584117
0.584131
0.584145
0.584145
0.584159
0.584173
0.584187
0.584201
0.584201
0.584215
0.584229
0.584243
0.584258
0.584258
0.584272
0.584286
0.5843
0.584314
0.584314
0.584328
0.584342
0.584357
0.584371
0.584371
0.584385
0.584399
0.584414
0.584428
0.584428
0.584442
0.584457
0.584471
0.584485
0.584485
0.5845
0.584514
0.584528
0.584543
0.584543
0.584557
0.584572
0.584586
0.584601
0.584601
0.584615
0.58463
0.584644
0.584659
0.584659
0.584673
0.584688
0.584703
0.584717
0.584717
0.584732
0.584746
0.584761
0.584776
0.584776
0.58479
0.584805
0.58482
0.584834
0.584834
0.584849
0.584864
0.584879
0.584894
0.584894
0.584908
0.584923
0.584938
0.584953
0.584953
0.584968
0.584983
0.584998
0.585013
0.585013
0.585028
0.585043
0.585058
0.585073
0.585073
0.585088
0.585103
0.585118
0.585133
0.585133
0.585149
0.585164
0.585179
0.585194
0.585194
0.585209
0.585225
0.58524
0.585255
0.585255
0.58527
0.585286
0.585301
0.585316
0.585316
0.585332
0.585347
0.585362
0.585378
0.585378
0.585393
0.585409
0.585424
0.58544
0.58544
0.585455
0.585471
0.585486
0.585502
0.585502
0.585517
0.585533
0.585548
0.585564
0.585564
0.58558
0.585595
0.585611
0.585627
0.585627
0.585642
0.585658
0.585674
0.58569
0.58569
0.585705
0.585721
0.585737
0.585753
0.585753
0.585769
0.585784
0.5858
0.585816
0.585816
0.585832
0.585848
0.585864
0.58588
0.58588
0.585896
0.585912
0.585928
0.585944
0.585944
0.58596
0.585976
0.585992
0.586008
0.586008
0.586025
0.586041
0.586057
0.586073
0.586073
0.586089
0.586106
0.586122
0.586138
0.586138
0.586154
0.586171
0.586187
0.586203
0.586203
0.58622
0.586236
0.586252
0.586269
0.586269
0.586285
0.586301
0.586318
0.586334
0.586334
0.586351
0.586367
0.586384
0.5864
0.5864
0.586417
0.586433
0.58645
0.586467
0.586467
0.586483
0.5865
0.586517
0.586534
0.586534
0.58655
0.586567
0.586584
0.586601
0.586601
0.586618
0.586635
0.586652
0.586669
0.586669
0.586686
0.586702
0.586719
0.586736
0.586736
0.586753
0.58677
0.586787
0.586805
0.586805
0.586822
0.586839
0.586856
0.586873
0.586873
0.58689
0.586907
0.586924
0.586942
0.586942
0.586959
0.586976
0.586993
0.587011
0.587011
0.587028
0.587045
0.587063
0.58708
0.58708
0.587097
0.587115
0.587132
0.58715
0.58715
0.587167
0.587185
0.587202
0.58722
0.58722
0.587237
0.587255
0.587272
0.58729
0.58729
0.587307
0.587325
0.587343
0.58736
0.58736
0.587378
0.587396
0.587414
0.587431
0.587431
0.587449
0.587467
0.587485
0.587503
0.587503
0.58752
0.587538
0.587556
0.587574
0.587574
0.587592
0.58761
0.587628
0.587646
0.587646
0.587664
0.587682
0.5877
0.587718
0.587718
0.587736
0.587754
0.587773
0.587791
0.587791
0.587809
0.587827
0.587845
0.587863
0.587863
0.587882
0.5879
0.587918
0.587936
0.587936
0.587955
0.587973
0.587991
0.58801
0.58801
0.588028
0.588047
0.588065
0.588084
0.588084
0.588102
0.588121
0.58814
0.588158
0.588158
0.588177
0.588196
0.588214
0.588233
0.588233
0.588252
0.588271
0.588289
0.588308
0.588308
0.588327
0.588346
0.588365
0.588383
0.588383
0.588402
0.588421
0.58844
0.588459
0.588459
0.588478
0.588497
0.588516
0.588535
0.588535
0.588554
0.588573
0.588592
0.588612
0.588612
0.588631
0.58865
0.588669
0.588688
0.588688
0.588707
0.588727
0.588746
0.588765
0.588765
0.588785
0.588804
0.588823
0.588843
0.588843
0.588862
0.588881
0.588901
0.58892
0.58892
0.58894
0.588959
0.588979
0.588998
0.588998
0.589018
0.589038
0.589057
0.589077
0.589077
0.589097
0.589116
0.589136
0.589156
0.589156
0.589175
0.589195
0.589215
0.589235
0.589235
0.589255
0.589274
0.589294
0.589314
0.589314
0.589334
0.589354
0.589374
0.589394
0.589394
0.589414
0.589434
0.589454
0.589474
0.589474
0.589494
0.589514
0.589534
0.589554
0.589554
0.589575
0.589595
0.589615
0.589635
0.589635
0.589655
0.589676
0.589696
0.589716
0.589716
0.589737
0.589757
0.589778
0.589798
0.589798
0.589819
0.58984
0.58986
0.589881
0.589881
0.589901
0.589922
0.589943
0.589963
0.589963
0.589984
0.590005
0.590026
0.590046
0.590046
0.590067
0.590088
0.590109
0.59013
0.59013
0.590151
0.590171
0.590192
0.590213
0.590213
0.590234
0.590255
0.590276
0.590297
0.590297
0.590318
0.59034
0.590361
0.590382
0.590382
0.590403
0.590424
0.590445
0.590466
0.590466
0.590488
0.590509
0.59053
0.590552
0.590552
0.590573
0.590594
0.590616
0.590637
0.590637
0.590659
0.59068
0.590702
0.590723
0.590723
0.590745
0.590766
0.590788
0.590809
0.590809
0.590831
0.590853
0.590874
0.590896
0.590896
0.590918
0.590939
0.590961
0.590983
0.590983
0.591005
0.591027
0.591049
0.59107
0.59107
0.591092
0.591114
0.591136
0.591158
0.591158
0.59118
0.591202
0.591224
0.591246
0.591246
0.591268
0.59129
0.591312
0.591335
0.591335
0.591357
0.591379
0.591401
0.591423
0.591423
0.591446
0.591468
0.59149
0.591513
0.591513
0.591535
0.591558
0.59158
0.591603
0.591603
0.591626
0.591648
0.591671
0.591694
0.591694
0.591716
0.591739
0.591762
0.591784
0.591784
0.591807
0.59183
0.591853
0.591876
0.591876
0.591899
0.591921
0.591944
0.591967
0.591967
0.59199
0.592013
0.592036
0.592059
0.592059
0.592082
0.592105
0.592128
0.592152
0.592152
0.592175
0.592198
0.592221
0.592244
0.592244
0.592268
0.592291
0.592314
0.592338
0.592338
0.592361
0.592384
0.592408
0.592431
0.592431
0.592455
0.592478
0.592502
0.592525
0.592525
0.592549
0.592572
0.592596
0.59262
0.59262
0.592643
0.592667
0.592691
0.592714
0.592714
0.592738
0.592762
0.592786
0.59281
0.59281
0.592833
0.592857
0.592881
0.592905
0.592905
0.592929
0.592953
0.592977
0.593001
0.593001
0.593025
0.593049
0.593073
0.593097
0.593097
0.593122
0.593146
0.59317
0.593194
0.593194
0.593218
0.593243
0.593267
0.593291
0.593291
0.593316
0.59334
0.593365
0.593389
0.593389
0.593414
0.593439
0.593463
0.593488
0.593488
0.593513
0.593537
0.593562
0.593587
0.593587
0.593612
0.593637
0.593661
0.593686
0.593686
0.593711
0.593736
0.593761
0.593786
0.593786
0.593811
0.593836
0.593861
0.593886
0.593886
0.593911
0.593936
0.593962
0.593987
0.593987
0.594012
0.594037
0.594062
0.594088
0.594088
0.594113
0.594138
0.594164
0.594189
0.594189
0.594215
0.59424
0.594266
0.594291
0.594291
0.594317
0.594342
0.594368
0.594393
0.594393
0.594419
0.594445
0.59447
0.594496
0.594496
0.594522
0.594548
0.594573
0.594599
0.594599
0.594625
0.594651
0.594677
0.594703
0.594703
0.594729
0.594755
0.594781
0.594807
0.594807
0.594833
0.594859
0.594885
0.594911
0.594911
0.594938
0.594964
0.59499
0.595016
0.595016
0.595042
0.595069
0.595095
0.595121
0.595121
0.595148
0.595174
0.595201
0.595227
0.595227
0.595254
0.59528
0.595307
0.595334
0.595334
0.59536
0.595387
0.595414
0.595441
0.595441
0.595468
0.595495
0.595522
0.595549
0.595549
0.595576
0.595603
0.59563
0.595657
0.595657
0.595684
0.595711
0.595738
0.595765
0.595765
0.595792
0.59582
0.595847
0.595874
0.595874
0.595901
0.595929
0.595956
0.595984
0.595984
0.596011
0.596038
0.596066
0.596093
0.596093
0.596121
0.596148
0.596176
0.596204
0.596204
0.596231
0.596259
0.596287
0.596314
0.596314
0.596342
0.59637
0.596398
0.596426
0.596426
0.596453
0.596481
0.596509
0.596537
0.596537
0.596565
0.596593
0.596621
0.596649
0.596649
0.596678
0.596706
0.596734
0.596762
0.596762
0.59679
0.596819
0.596847
0.596875
0.596875
0.596904
0.596932
0.59696
0.596989
0.596989
0.597017
0.597046
0.597074
0.597103
0.597103
0.597131
0.59716
0.597188
0.597217
0.597217
0.597246
0.597274
0.597303
0.597332
0.597332
0.597361
0.59739
0.597419
0.597448
0.597448
0.597477
0.597506
0.597535
0.597564
0.597564
0.597594
0.597623
0.597652
0.597681
0.597681
0.597711
0.59774
0.597769
0.597799
0.597799
0.597828
0.597858
0.597887
0.597917
0.597917
0.597946
0.597976
0.598005
0.598035
0.598035
0.598065
0.598094
0.598124
0.598154
0.598154
0.598184
0.598213
0.598243
0.598273
0.598273
0.598303
0.598333
0.598363
0.598393
0.598393
0.598423
0.598453
0.598483
0.598513
0.598513
0.598543
0.598573
0.598604
0.598634
0.598634
0.598664
0.598694
0.598725
0.598755
0.598755
0.598785
0.598816
0.598846
0.598877
0.598877
0.598907
0.598938
0.598968
0.598999
0.598999
0.59903
0.59906
0.599091
0.599122
0.599122
0.599152
0.599183
0.599214
0.599245
0.599245
0.599276
0.599307
0.599338
0.599369
0.599369
0.5994
0.599431
0.599462
0.599493
0.599493
0.599524
0.599555
0.599587
0.599618
0.599618
0.59965
0.599681
0.599712
0.599744
0.599744
0.599776
0.599807
0.599839
0.59987
0.59987
0.599902
0.599934
0.599965
0.599997
0.599997
0.600029
0.600061
0.600093
0.600124
0.600124
0.600156
0.600188
0.60022
0.600252
0.600252
0.600284
0.600316
0.600348
0.600381
0.600381
0.600413
0.600445
0.600477
0.600509
0.600509
0.600542
0.600574
0.600606
0.600639
0.600639
0.600671
0.600704
0.600736
0.600769
0.600769
0.600801
0.600834
0.600866
0.600899
0.600899
0.600932
0.600964
0.600997
0.60103
0.60103
0.601063
0.601095
0.601128
0.601161
0.601161
0.601194
0.601227
0.60126
0.601293
0.601293
0.601326
0.601359
0.601392
0.601425
0.601425
0.601459
0.601492
0.601525
0.601558
0.601558
0.601592
0.601625
0.601658
0.601692
0.601692
0.601725
0.601759
0.601793
0.601826
0.601826
0.60186
0.601894
0.601928
0.601962
0.601962
0.601995
0.602029
0.602063
0.602097
0.602097
0.602131
0.602165
0.602199
0.602234
0.602234
0.602268
0.602302
0.602336
0.60237
0.60237
0.602405
0.602439
0.602473
0.602508
0.602508
0.602542
0.602576
0.602611
0.602645
0.602645
0.60268
0.602714
0.602749
0.602784
0.602784
0.602818
0.602853
0.602888
0.602923
0.602923
0.602957
0.602992
0.603027
0.603062
0.603062
0.603097
0.603132
0.603167
0.603202
0.603202
0.603237
0.603272
0.603307
0.603342
0.603342
0.603378
0.603413
0.603448
0.603483
0.603483
0.603519
0.603554
0.60359
0.603625
0.603625
0.60366
0.603696
0.603732
0.603767
0.603767
0.603803
0.603838
0.603874
0.60391
0.60391
0.603945
0.603981
0.604017
0.604053
0.604053
0.604089
0.604125
0.604161
0.604197
0.604197
0.604233
0.60427
0.604306
0.604342
0.604342
0.604379
0.604415
0.604451
0.604488
0.604488
0.604524
0.604561
0.604597
0.604634
0.604634
0.604671
0.604707
0.604744
0.604781
0.604781
0.604817
0.604854
0.604891
0.604928
0.604928
0.604965
0.605002
0.605039
0.605076
0.605076
0.605113
0.60515
0.605187
0.605224
0.605224
0.605261
0.605298
0.605335
0.605373
0.605373
0.60541
0.605447
0.605485
0.605522
0.605522
0.60556
0.605597
0.605635
0.605672
0.605672
0.60571
0.605747
0.605785
0.605823
0.605823
0.60586
0.605898
0.605936
0.605974
0.605974
0.606012
0.606049
0.606087
0.606125
0.606125
0.606163
0.606201
0.606239
0.606278
0.606278
0.606316
0.606354
0.606392
0.60643
0.60643
0.606469
0.606507
0.606545
0.606584
0.606584
0.606623
0.606661
0.6067
0.606739
0.606739
0.606777
0.606816
0.606855
0.606894
0.606894
0.606933
0.606972
0.607011
0.60705
0.60705
0.607089
0.607128
0.607167
0.607206
0.607206
0.607245
0.607284
0.607324
0.607363
0.607363
0.607402
0.607442
0.607481
0.607521
0.607521
0.60756
0.607599
0.607639
0.607679
0.607679
0.607718
0.607758
0.607798
0.607837
0.607837
0.607877
0.607917
0.607957
0.607996
0.607996
0.608036
0.608076
0.608116
0.608156
0.608156
0.608196
0.608236
0.608277
0.608317
0.608317
0.608357
0.608397
0.608437
0.608478
0.608478
0.608518
0.608558
0.608599
0.608639
0.608639
0.60868
0.60872
0.608761
0.608801
0.608801
0.608842
0.608883
0.608923
0.608964
0.608964
0.609005
0.609046
0.609087
0.609128
0.609128
0.609169
0.60921
0.609251
0.609292
0.609292
0.609333
0.609375