<?xml version="1.0"?>
<VTKFile type="UnstructuredGrid" version="0.1" byte_order="LittleEndian">
<UnstructuredGrid>
<Piece NumberOfPoints="5000" NumberOfCells="4000">
<PointData Scalars="Reaction 0">
<DataArray type="Float32" Name="Reaction 0" format="ascii">
0.585613
0.585613
0.585613
0.585613
0.585613
0.585613
0.585613
0.585613
0.585613
0.585613
0.585613
0.585613
0.585613
0.585613
0.585614
0.585614
0.585614
0.585614
0.585614
0.585614
0.585614
0.585614
0.585614
0.585615
0.585615
0.585615
0.585615
0.585615
0.585615
0.585616
0.585616
0.585616
0.585616
0.585617
0.585617
0.585617
0.585617
0.585617
0.585618
0.585618
0.585618
0.585618
0.585619
0.585619
0.585619
0.585619
0.58562
0.58562
0.58562
0.585621
0.585621
0.585621
0.585622
0.585622
0.585623
0.585623
0.585623
0.585623
0.585624
0.585624
0.585624
0.585625
0.585625
0.585626
0.585626
0.585626
0.585627
0.585627
0.585628
0.585629
0.585629
0.585629
0.58563
0.58563
0.585631
0.585631
0.585632
0.585632
0.585633
0.585633
0.585633
0.585634
0.585635
0.585635
0.585636
0.585636
0.585637
0.585637
0.585638
0.585639
0.585639
0.58564
0.58564
0.585641
0.585642
0.585642
0.585643
0.585643
0.585644
0.585645
0.585645
0.585646
0.585647
0.585647
0.585648
0.585648
0.585649
0.58565
0.585651
0.585652
0.585652
0.585653
0.585654
0.585654
0.585655
0.585655
0.585656
0.585657
0.585658
0.585659
0.585659
0.58566
0.585661
0.585662
0.585663
0.585663
0.585664
0.585665
0.585666
0.585667
0.585667
0.585668
0.585669
0.58567
0.585671
0.585671
0.585673
0.585674
0.585675
0.585676
0.585676
0.585677
0.585678
0.585679
0.58568
0.58568
0.585682
0.585683
0.585684
0.585685
0.585685
0.585686
0.585688
0.585689
0.58569
0.58569
0.585691
0.585693
0.585694
0.585695
0.585695
0.585696
0.585698
0.585699
0.5857
0.5857
0.585702
0.585703
0.585704
0.585706
0.585706
0.585707
0.585709
0.58571
0.585711
0.585711
0.585713
0.585714
0.585716
0.585717
0.585717
0.585719
0.58572
0.585722
0.585723
0.585723
0.585724
0.585726
0.585728
0.585729
0.585729
0.585731
0.585732
0.585734
0.585735
0.585735
0.585737
0.585738
0.58574
0.585742
0.585742
0.585743
0.585745
0.585747
0.585748
0.585748
0.58575
0.585751
0.585753
0.585755
0.585755
0.585757
0.585758
0.58576
0.585762
0.585762
0.585763
0.585765
0.585767
0.585769
0.585769
0.585771
0.585772
0.585774
0.585776
0.585776
0.585778
0.58578
0.585781
0.585783
0.585783
0.585785
0.585787
0.585789
0.585791
0.585791
0.585793
0.585795
0.585797
0.585798
0.585798
0.5858
0.585802
0.585804
0.585806
0.585806
0.585808
0.58581
0.585812
0.585814
0.585814
0.585816
0.585818
0.58582
0.585822
0.585822
0.585825
0.585827
0.585829
0.585831
0.585831
0.585833
0.585835
0.585837
0.585839
0.585839
0.585841
0.585844
0.585846
0.585848
0.585848
0.58585
0.585852
0.585855
0.585857
0.585857
0.585859
0.585861
0.585863
0.585866
0.585866
0.585868
0.58587
0.585873
0.585875
0.585875
0.585877
0.58588
0.585882
0.585884
0.585884
0.585887
0.585889
0.585891
0.585894
0.585894
0.585896
0.585898
0.585901
0.585903
0.585903
0.585906
0.585908
0.585911
0.585913
0.585913
0.585916
0.585918
0.585921
0.585923
0.585923
0.585926
0.585928
0.585931
0.585933
0.585933
0.585936
0.585938
0.585941
0.585944
0.585944
0.585946
0.585949
0.585951
0.585954
0.585954
0.585957
0.585959
0.585962
0.585965
0.585965
0.585967
0.58597
0.585973
0.585975
0.585975
0.585978
0.585981
0.585984
0.585986
0.585986
0.585989
0.585992
0.585995
0.585998
0.585998
0.586
0.586003
0.586006
0.586009
0.586009
0.586012
0.586015
0.586017
0.58602
0.58602
0.586023
0.586026
0.586029
0.586032
0.586032
0.586035
0.586038
0.586041
0.586044
0.586044
0.586047
0.58605
0.586052
0.586055
0.586055
0.586058
0.586062
0.586065
0.586068
0.586068
0.586071
0.586074
0.586077
0.58608
0.58608
0.586083
0.586086
0.586089
0.586093
0.586093
0.586096
0.586099
0.586102
0.586105
0.586105
0.586108
0.586112
0.586115
0.586118
0.586118
0.586121
0.586125
0.586128
0.586131
0.586131
0.586134
0.586138
0.586141
0.586144
0.586144
0.586148
0.586151
0.586154
0.586158
0.586158
0.586161
0.586164
0.586168
0.586171
0.586171
0.586174
0.586178
0.586181
0.586185
0.586185
0.586188
0.586192
0.586195
0.586199
0.586199
0.586202
0.586205
0.586209
0.586213
0.586213
0.586216
0.58622
0.586223
0.586227
0.586227
0.58623
0.586234
0.586237
0.586241
0.586241
0.586245
0.586248
0.586252
0.586256
0.586256
0.586259
0.586263
0.586266
0.58627
0.58627
0.586274
0.586278
0.586281
0.586285
0.586285
0.586289
0.586293
0.586296
0.5863
0.5863
0.586304
0.586308
0.586311
0.586315
0.586315
0.586319
0.586323
0.586327
0.586331
0.586331
0.586334
0.586338
0.586342
0.586346
0.586346
0.58635
0.586354
0.586358
0.586362
0.586362
0.586366
0.58637
0.586374
0.586378
0.586378
0.586382
0.586386
0.58639
0.586394
0.586394
0.586398
0.586402
0.586406
0.58641
0.58641
0.586414
0.586418
0.586422
0.586426
0.586426
0.58643
0.586435
0.586439
0.586443
0.586443
0.586447
0.586451
0.586455
0.58646
0.58646
0.586464
0.586468
0.586472
0.586477
0.586477
0.586481
0.586485
0.586489
0.586494
0.586494
0.586498
0.586502
0.586507
0.586511
0.586511
0.586515
0.58652
0.586524
0.586528
0.586528
0.586533
0.586537
0.586541
0.586546
0.586546
0.58655
0.586555
0.586559
0.586564
0.586564
0.586568
0.586573
0.586577
0.586582
0.586582
0.586586
0.586591
0.586595
0.5866
0.5866
0.586604
0.586609
0.586613
0.586618
0.586618
0.586623
0.586627
0.586632
0.586637
0.586637
0.586641
0.586646
0.586651
0.586655
0.586655
0.58666
0.586665
0.586669
0.586674
0.586674
0.586679
0.586684
0.586688
0.586693
0.586693
0.586698
0.586703
0.586707
0.586712
0.586712
0.586717
0.586722
0.586727
0.586732
0.586732
0.586736
0.586741
0.586746
0.586751
0.586751
0.586756
0.586761
0.586766
0.586771
0.586771
0.586776
0.586781
0.586786
0.586791
0.586791
0.586796
0.586801
0.586806
0.586811
0.586811
0.586816
0.586821
0.586826
0.586831
0.586831
0.586836
0.586841
0.586846
0.586852
0.586852
0.586857
0.586862
0.586867
0.586872
0.586872
0.586877
0.586883
0.586888
0.586893
0.586893
0.586898
0.586903
0.586909
0.586914
0.586914
0.586919
0.586924
0.58693
0.586935
0.586935
0.58694
0.586946
0.586951
0.586956
0.586956
0.586962
0.586967
0.586973
0.586978
0.586978
0.586983
0.586989
0.586994
0.587
0.587
0.587005
0.587011
0.587016
0.587022
0.587022
0.587027
0.587033
0.587038
0.587044
0.587044
0.587049
0.587055
0.58706
0.587066
0.587066
0.587071
0.587077
0.587083
0.587088
0.587088
0.587094
0.5871
0.587105
0.587111
0.587111
0.587117
0.587122
0.587128
0.587134
0.587134
0.587139
0.587145
0.587151
0.587157
0.587157
0.587162
0.587168
0.587174
0.58718
0.58718
0.587186
0.587191
0.587197
0.587203
0.587203
0.587209
0.587215
0.587221
0.587227
0.587227
0.587233
0.587239
0.587244
0.58725
0.58725
0.587256
0.587262
0.587268
0.587274
0.587274
0.58728
0.587286
0.587292
0.587298
0.587298
0.587304
0.587311
0.587317
0.587323
0.587323
0.587329
0.587335
0.587341
0.587347
0.587347
0.587353
0.587359
0.587366
0.587372
0.587372
0.587378
0.587384
0.58739
0.587397
0.587397
0.587403
0.587409
0.587415
0.587422
0.587422
0.587428
0.587434
0.587441
0.587447
0.587447
0.587453
0.58746
0.587466
0.587472
0.587472
0.587479
0.587485
0.587491
0.587498
0.587498
0.587504
0.587511
0.587517
0.587524
0.587524
0.58753
0.587537
0.587543
0.58755
0.58755
0.587556
0.587563
0.587569
0.587576
0.587576
0.587582
0.587589
0.587595
0.587602
0.587602
0.587609
0.587615
0.587622
0.587628
0.587628
0.587635
0.587642
0.587648
0.587655
0.587655
0.587662
0.587668
0.587675
0.587682
0.587682
0.587689
0.587695
0.587702
0.587709
0.587709
0.587716
0.587722
0.587729
0.587736
0.587736
0.587743
0.58775
0.587757
0.587764
0.587764
0.587771
0.587778
0.587785
0.587792
0.587792
0.587799
0.587806
0.587813
0.58782
0.58782
0.587827
0.587834
0.587841
0.587848
0.587848
0.587855
0.587862
0.587869
0.587876
0.587876
0.587883
0.58789
0.587897
0.587905
0.587905
0.587912
0.587919
0.587926
0.587933
0.587933
0.58794
0.587948
0.587955
0.587962
0.587962
0.587969
0.587977
0.587984
0.587991
0.587991
0.587998
0.588006
0.588013
0.58802
0.58802
0.588028
0.588035
0.588042
0.58805
0.58805
0.588057
0.588065
0.588072
0.588079
0.588079
0.588087
0.588094
0.588102
0.588109
0.588109
0.588117
0.588124
0.588132
0.588139
0.588139
0.588147
0.588154
0.588162
0.58817
0.58817
0.588177
0.588185
0.588192
0.5882
0.5882
0.588208
0.588215
0.588223
0.588231
0.588231
0.588238
0.588246
0.588254
0.588261
0.588261
0.588269
0.588277
0.588285
0.588293
0.588293
0.5883
0.588308
0.588316
0.588324
0.588324
0.588332
0.588339
0.588347
0.588355
0.588355
0.588363
0.588371
0.588379
0.588387
0.588387
0.588395
0.588403
0.588411
0.588419
0.588419
0.588427
0.588435
0.588443
0.588451
0.588451
0.588459
0.588467
0.588475
0.588483
0.588483
0.588491
0.588499
0.588507
0.588515
0.588515
0.588524
0.588532
0.58854
0.588548
0.588548
0.588556
0.588565
0.588573
0.588581
0.588581
0.588589
0.588598
0.588606
0.588614
0.588614
0.588622
0.588631
0.588639
0.588647
0.588647
0.588656
0.588664
0.588672
0.588681
0.588681
0.588689
0.588698
0.588706
0.588715
0.588715
0.588723
0.588731
0.58874
0.588748
0.588748
0.588757
0.588765
0.588774
0.588783
0.588783
0.588791
0.5888
0.588808
0.588817
0.588817
0.588825
0.588834
0.588843
0.588851
0.588851
0.58886
0.588869
0.588877
0.588886
0.588886
0.588895
0.588904
0.588912
0.588921
0.588921
0.58893
0.588939
0.588947
0.588956
0.588956
0.588965
0.588974
0.588983
0.588992
0.588992
0.589
0.589009
0.589018
0.589027
0.589027
0.589036
0.589045
0.589054
0.589063
0.589063
0.589072
0.589081
0.58909
0.589099
0.589099
0.589108
0.589117
0.589126
0.589135
0.589135
0.589144
0.589153
0.589162
0.589172
0.589172
0.589181
0.58919
0.589199
0.589208
0.589208
0.589217
0.589227
0.589236
0.589245
0.589245
0.589254
0.589264
0.589273
0.589282
0.589282
0.589291
0.589301
0.58931
0.589319
0.589319
0.589329
0.589338
0.589347
0.589357
0.589357
0.589366
0.589376
0.589385
0.589394
0.589394
0.589404
0.589413
0.589423
0.589432
0.589432
0.589442
0.589451
0.589461
0.58947
0.58947
0.58948
0.589489
0.589499
0.589509
0.589509
0.589518
0.589528
0.589538
0.589547
0.589547
0.589557
0.589567
0.589576
0.589586
0.589586
0.589596
0.589606
0.589616
0.589625
0.589625
0.589635
0.589645
0.589655
0.589665
0.589665
0.589675
0.589684
0.589694
0.589704
0.589704
0.589714
0.589724
0.589734
0.589744
0.589744
0.589754
0.589764
0.589774
0.589784
0.589784
0.589794
0.589804
0.589814
0.589824
0.589824
0.589834
0.589844
0.589854
0.589864
0.589864
0.589875
0.589885
0.589895
0.589905
0.589905
0.589915
0.589925
0.589936
0.589946
0.589946
0.589956
0.589966
0.589977
0.589987
0.589987
0.589997
0.590007
0.590018
0.590028
0.590028
0.590038
0.590049
0.590059
0.59007
0.59007
0.59008
0.59009
0.590101
0.590111
0.590111
0.590122
0.590132
0.590143
0.590153
0.590153
0.590164
0.590174
0.590185
0.590195
0.590195
0.590206
0.590217
0.590227
0.590238
0.590238
0.590248
0.590259
0.59027
0.59028
0.59028
0.590291
0.590302
0.590313
0.590323
0.590323
0.590334
0.590345
0.590356
0.590366
0.590366
0.590377
0.590388
0.590399
0.59041
0.59041
0.590421
0.590432
0.590442
0.590453
0.590453
0.590464
0.590475
0.590486
0.590497
0.590497
0.590508
0.590519
0.59053
0.590541
0.590541
0.590552
0.590563
0.590574
0.590585
0.590585
0.590597
0.590608
0.590619
0.59063
0.59063
0.590641
0.590652
0.590663
0.590675
0.590675
0.590686
0.590697
0.590708
0.59072
0.59072
0.590731
0.590742
0.590754
0.590765
0.590765
0.590776
0.590788
0.590799
0.59081
0.59081
0.590822
0.590833
0.590845
0.590856
0.590856
0.590867
0.590879
0.59089
0.590902
0.590902
0.590913
0.590925
0.590936
0.590948
0.590948
0.59096
0.590971
0.590983
0.590994
0.590994
0.591006
0.591018
0.591029
0.591041
0.591041
0.591053
0.591064
0.591076
0.591088
0.591088
0.5911
0.591111
0.591123
0.591135
0.591135
0.591147
0.591159
0.59117
0.591182
0.591182
0.591194
0.591206
0.591218
0.59123
0.59123
0.591242
0.591254
0.591266
0.591277
0.591277
0.591289
0.591301
0.591313
0.591325
0.591325
0.591337
0.591349
0.591362
0.591374
0.591374
0.591386
0.591398
0.59141
0.591422
0.591422
0.591435
0.591447
0.591459
0.591471
0.591471
0.591484
0.591496
0.591508
0.591521
0.591521
0.591533
0.591545
0.591558
0.59157
0.59157
0.591582
0.591595
0.591607
0.59162
0.59162
0.591632
0.591645
0.591657
0.59167
0.59167
0.591682
0.591695
0.591707
0.59172
0.59172
0.591732
0.591745
0.591757
0.59177
0.59177
0.591783
0.591795
0.591808
0.591821
0.591821
0.591833
0.591846
0.591859
0.591871
0.591871
0.591884
0.591897
0.59191
0.591923
0.591923
0.591935
0.591948
0.591961
0.591974
0.591974
0.591987
0.592
0.592013
0.592026
0.592026
0.592038
0.592051
0.592064
0.592077
0.592077
0.59209
0.592103
0.592116
0.592129
0.592129
0.592143
0.592156
0.592169
0.592182
0.592182
0.592195
0.592208
0.592221
0.592234
0.592234
0.592248
0.592261
0.592274
0.592287
0.592287
0.592301
0.592314
0.592327
0.592341
0.592341
0.592354
0.592367
0.592381
0.592394
0.592394
0.592407
0.592421
0.592434
0.592448
0.592448
0.592461
0.592475
0.592488
0.592502
0.592502
0.592515
0.592529
0.592542
0.592556
0.592556
0.592569
0.592583
0.592597
0.59261
0.59261
0.592624
0.592638
0.592651
0.592665
0.592665
0.592679
0.592692
0.592706
0.59272
0.59272
0.592734
0.592747
0.592761
0.592775
0.592775
0.592789
0.592803
0.592817
0.592831
0.592831
0.592845
0.592858
0.592872
0.592886
0.592886
0.5929
0.592914
0.592928
0.592942
0.592942
0.592956
0.592971
0.592985
0.592999
0.592999
0.593013
0.593027
0.593041
0.593055
0.593055
0.593069
0.593084
0.593098
0.593112
0.593112
0.593126
0.593141
0.593155
0.593169
0.593169
0.593183
0.593198
0.593212
0.593226
0.593226
0.593241
0.593255
0.593269
0.593284
0.593284
0.593298
0.593313
0.593327
0.593342
0.593342
0.593356
0.593371
0.593385
0.5934
0.5934
0.593415
0.593429
0.593444
0.593459
0.593459
0.593473
0.593488
0.593503
0.593518
0.593518
0.593532
0.593547
0.593562
0.593577
0.593577
0.593592
0.593606
0.593621
0.593636
0.593636
0.593651
0.593666
0.593681
0.593696
0.593696
0.593711
0.593726
0.593741
0.593756
0.593756
0.593771
0.593786
0.593801
0.593816
0.593816
0.593831
0.593846
0.593861
0.593876
0.593876
0.593891
0.593907
0.593922
0.593937
0.593937
0.593952
0.593967
0.593983
0.593998
0.593998
0.594013
0.594029
0.594044
0.594059
0.594059
0.594075
0.59409
0.594105
0.594121
0.594121
0.594136
0.594152
0.594167
0.594183
0.594183
0.594198
0.594214
0.594229
0.594245
0.594245
0.59426
0.594276
0.594292
0.594307
0.594307
0.594323
0.594339
0.594354
0.59437
0.59437
0.594386
0.594401
0.594417
0.594433
0.594433
0.594449
0.594465
0.59448
0.594496
0.594496
0.594512
0.594528
0.594544
0.59456
0.59456
0.594576
0.594592
0.594608
0.594624
0.594624
0.59464
0.594656
0.594672
0.594688
0.594688
0.594704
0.59472
0.594736
0.594752
0.594752
0.594768
0.594785
0.594801
0.594817
0.594817
0.594833
0.59485
0.594866
0.594882
0.594882
0.594898
0.594915
0.594931
0.594947
0.594947
0.594964
0.59498
0.594997
0.595013
0.595013
0.595029
0.595046
0.595062
0.595079
0.595079
0.595095
0.595112
0.595129
0.595145
0.595145
0.595162
0.595178
0.595195
0.595211
0.595211
0.595228
0.595245
0.595261
0.595278
0.595278
0.595295
0.595312
0.595328
0.595345
0.595345
0.595362
0.595379
0.595395
0.595412
0.595412
0.595429
0.595446
0.595463
0.59548
0.59548
0.595497
0.595514
0.595531
0.595548
0.595548
0.595565
0.595583
0.5956
0.595617
0.595617
0.595634
0.595651
0.595668
0.595686
0.595686
0.595703
0.59572
0.595737
0.595755
0.595755
0.595772
0.595789
0.595807
0.595824
0.595824
0.595841
0.595859
0.595876
0.595894
0.595894
0.595911
0.595929
0.595946
0.595963
0.595963
0.595981
0.595999
0.596016
0.596034
0.596034
0.596051
0.596069
0.596087
0.596104
0.596104
0.596122
0.59614
0.596157
0.596175
0.596175
0.596193
0.59621
0.596228
0.596246
0.596246
0.596264
0.596282
0.5963
0.596318
0.596318
0.596335
0.596353
0.596371
0.596389
0.596389
0.596407
0.596425
0.596443
0.596461
0.596461
0.596479
0.596497
0.596516
0.596534
0.596534
0.596552
0.59657
0.596588
0.596606
0.596606
0.596625
0.596643
0.596661
0.596679
0.596679
0.596698
0.596716
0.596734
0.596753
0.596753
0.596771
0.596789
0.596808
0.596826
0.596826
0.596845
0.596863
0.596882
0.5969
0.5969
0.596919
0.596937
0.596956
0.596975
0.596975
0.596993
0.597012
0.59703
0.597049
0.597049
0.597068
0.597087
0.597105
0.597124
0.597124
0.597143
0.597162
0.59718
0.597199
0.597199
0.597218
0.597237
0.597256
0.597275
0.597275
0.597294
0.597313
0.597332
0.597351
0.597351
0.59737
0.597389
0.597408
0.597427
0.597427
0.597446
0.597465
0.597484
0.597503
0.597503
0.597522
0.597541
0.59756
0.59758
0.59758
0.597599
0.597618
0.597637
0.597657
0.597657
0.597676
0.597696
0.597715
0.597735
0.597735
0.597754
0.597774
0.597793
0.597813
0.597813
0.597832
0.597852
0.597871
0.597891
0.597891
0.597911
0.59793
0.59795
0.59797
0.59797
0.597989
0.598009
0.598029
0.598049
0.598049
0.598068
0.598088
0.598108
0.598128
0.598128
0.598148
0.598168
0.598188
0.598208
0.598208
0.598227
0.598247
0.598267
0.598287
0.598287
0.598307
0.598328
0.598348
0.598368
0.598368
0.598388
0.598408
0.598428
0.598448
0.598448
0.598468
0.598489
0.598509
0.598529
0.598529
0.598549
0.59857
0.59859
0.59861
0.59861
0.598631
0.598651
0.598672
0.598692
0.598692
0.598712
0.598733
0.598753
0.598774
0.598774
0.598794
0.598815
0.598836
0.598856
0.598856
0.598877
0.598898
0.598918
0.598939
0.598939
0.59896
0.59898
0.599001
0.599022
0.599022
0.599043
0.599063
0.599084
0.599105
0.599105
0.599126
0.599147
0.599168
0.599189
0.599189
0.59921
0.599231
0.599252
0.599273
0.599273
0.599294
0.599315
0.599336
0.599357
0.599357
0.599378
0.599399
0.599421
0.599442
0.599442
0.599463
0.599484
0.599506
0.599527
0.599527
0.599548
0.599569
0.599591
0.599612
0.599612
0.599634
0.599655
0.599676
0.599698
0.599698
0.599719
0.599741
0.599762
0.599784
0.599784
0.599805
0.599827
0.599848
0.59987
0.59987
0.599892
0.599913
0.599935
0.599957
0.599957
0.599979
0.6
0.600022
0.600044
0.600044
0.600066
0.600088
0.60011
0.600132
0.600132
0.600154
0.600176
0.600198
0.60022
0.60022
0.600242
0.600264
0.600286
0.600309
0.600309
0.600331
0.600353
0.600375
0.600397
0.600397
0.60042
0.600442
0.600464
0.600486
0.600486
0.600509
0.600531
0.600553
0.600576
0.600576
0.600598
0.600621
0.600643
0.600666
0.600666
0.600688
0.600711
0.600733
0.600756
0.600756
0.600778
0.600801
0.600824
0.600846
0.600846
0.600869
0.600892
0.600914
0.600937
0.600937
0.60096
0.600983
0.601005
0.601028
0.601028
0.601051
0.601074
0.601097
0.60112
0.60112
0.601143
0.601166
0.601189
0.601212
0.601212
0.601235
0.601258
0.601281
0.601304
0.601304
0.601327
0.601351
0.601374
0.601397
0.601397
0.60142
0.601443
0.601467
0.60149
0.60149
0.601513
0.601537
0.60156
0.601584
0.601584
0.601607
0.60163
0.601654
0.601677
0.601677
0.601701
0.601724
0.601748
0.601772
0.601772
0.601795
0.601819
0.601842
0.601866
0.601866
0.60189
0.601913
0.601937
0.601961
0.601961
0.601985
0.602008
0.602032
0.602056
0.602056
0.60208
0.602104
0.602128
0.602152
0.602152
0.602175
0.602199
0.602223
0.602247
0.602247
0.602271
0.602296
0.60232
0.602344
0.602344
0.602368
0.602392
0.602417
0.602441
0.602441
0.602465
0.60249
0.602514
0.602539
0.602539
0.602563
0.602587
0.602612
0.602636
0.602636
0.602661
0.602686
0.60271
0.602735
0.602735
0.602759
0.602784
0.602809
0.602833
0.602833
0.602858
0.602883
0.602907
0.602932
0.602932
0.602957
0.602982
0.603007
0.603031
0.603031
0.603056
0.603081
0.603106
0.603131
0.603131
0.603156
0.603181
0.603206
0.603231
0.603231
0.603256
0.603281
0.603306
0.603332
0.603332
0.603357
0.603382
0.603407
0.603432
0.603432
0.603458
0.603483
0.603508
0.603534
0.603534
0.603559
0.603584
0.60361
0.603635
0.603635
0.603661
0.603686
0.603712
0.603737
0.603737
0.603763
0.603788
0.603814
0.60384
0.60384
0.603865
0.603891
0.603917
0.603942
0.603942
0.603968
0.603994
0.60402
0.604046
0.604046
0.604071
0.604097
0.604123
0.604149
0.604149
0.604175
0.604201
0.604227
0.604253
0.604253
0.604279
0.604305
0.604331
0.604357
0.604357
0.604384
0.60441
0.604436
0.604462
0.604462
0.604488
0.604515
0.604541
0.604567
0.604567
0.604593
0.60462
0.604646
0.604672
0.604672
0.604699
0.604725
0.604752
0.604778
0.604778
0.604805
0.604831
0.604858
0.604885
0.604885
0.604911
0.604938
0.604965
0.604992
0.604992
0.605019
0.605046
0.605073
0.605099
0.605099
0.605126
0.605153
0.60518
0.605207
0.605207
0.605234
0.605261
0.605289
0.605316
0.605316
0.605343
0.60537
0.605397
0.605424
0.605424
0.605452
0.605479
0.605506
0.605533
0.605533
0.605561
0.605588
0.605615
0.605643
0.605643
0.60567
0.605698
0.605725
0.605753
0.605753
0.60578
0.605808
0.605835
0.605863
0.605863
0.60589
0.605918
0.605946
0.605973
0.605973
0.606001
0.606029
0.606057
0.606084
0.606084
0.606112
0.60614
0.606168
0.606196
0.606196
0.606224
0.606252
0.60628
0.606308
0.606308
0.606336
0.606364
0.606392
0.60642
0.60642
0.606448
0.606476
0.606505
0.606533
0.606533
0.606561
0.606589
0.606618
0.606646
0.606646
0.606674
0.606703
0.606731
0.60676
0.60676
0.606788
0.606816
0.606845
0.606873
0.606873
0.606902
0.606931
0.606959
0.606988
0.606988
0.607016
0.607045
0.607074
0.607102
0.607102
0.607131
0.60716
0.607189
0.607217
0.607217
0.607246
0.607275
0.607304
0.607333
0.607333
0.607362
0.607391
0.60742
0.607449
0.607449
0.607478
0.607507
0.607537
0.607566
0.607566
0.607595
0.607624
0.607654
0.607683
0.607683
0.607713
0.607742
0.607771
0.607801
0.607801
0.60783
0.60786
0.607889
0.607919
0.607919
0.607949
0.607978
0.608008
0.608038
0.608038
0.608067
0.608097
0.608127
0.608156
0.608156
0.608186
0.608216
0.608246
0.608276
0.608276
0.608306
0.608336
0.608365
0.608395
0.608395
0.608425
0.608455
0.608486
0.608516
0.608516
0.608546
0.608576
0.608606
0.608636
0.608636
0.608666
0.608697
0.608727
0.608757
0.608757
0.608788
0.608818
0.608848
0.608879
0.608879
0.608909
0.60894
0.60897
0.609001
0.609001
0.609031
0.609062
0.609092
0.609123
0.609123
0.609154
0.609184
0.609215
0.609246
0.609246
0.609276
0.609307
0.609338
0.609369
0.609369
0.6094
0.609431
0.609462
0.609493
0.609493
0.609524
0.609555
0.609586
0.609617
0.609617
0.609648
0.609679
0.60971
0.609741
0.609741
0.609772
0.609803
0.609835
0.609866
0.609866
0.609897
0.609928
0.60996
0.609991
0.609991
0.610022
0.610054
0.610085
0.610117
0.610117
0.610148
0.61018
0.610211
0.610243
0.610243
0.610275
0.610307
0.610339
0.61037
0.61037
0.610402
0.610434
0.610466
0.610498
0.610498
0.61053
0.610562
0.610594
0.610626
0.610626
0.610658
0.61069
0.610722
0.610754
0.610754
0.610787
0.610819
0.610851
0.610883
0.610883
0.610916
0.610948
0.61098
0.611013
0.611013
0.611045
0.611077
0.61111
0.611142
0.611142
0.611175
0.611207
0.61124
0.611272
0.611272
0.611305
0.611338
0.61137
0.611403
0.611403
0.611436
0.611468
0.611501
0.611534
0.611534
0.611567
0.6116
0.611633
0.611666
0.611666
0.611698
0.611731
0.611764
0.611797
0.611797
0.611831
0.611864
0.611897
0.61193
0.61193
0.611963
0.611996
0.612029
0.612063
0.612063
0.612096
0.612129
0.612163
0.612196
0.612196
0.612229
0.612263
0.612296
0.61233
0.61233
0.612363
0.612397
0.61243
0.612464
0.612464
0.612497
0.612531
0.612565
0.612598
0.612598
0.612632
0.612666
0.6127
0.612733
0.612733
0.612767
0.612801
0.612835
0.612869
0.612869
0.612903
0.612937
0.612971
0.613005
0.613005
0.613039
0.613073
0.613107
0.613142
0.613142
0.613176
0.61321
0.613245
0.613279
0.613279
0.613314
0.613348
0.613383
0.613417
0.613417
0.613452
0.613486
0.613521
0.613555
0.613555
0.61359
0.613625
0.613659
0.613694
0.613694
0.613729
0.613764
0.613799
0.613833
0.613833
0.613868
0.613903
0.613938
0.613973
0.613973
0.614008
0.614043
0.614078
0.614113
0.614113
0.614148
0.614183
0.614218
0.614254
0.614254
0.614289
0.614324
0.614359
0.614394
0.614394
0.61443
0.614465
0.614501
0.614536
0.614536
0.614571
0.614607
0.614642
0.614678
0.614678
0.614713
0.614749
0.614785
0.61482
0.61482
0.614856
0.614892
0.614927
0.614963
0.614963
0.614999
0.615035
0.615071
0.615106
0.615106
0.615142
0.615178
0.615214
0.61525
0.61525
0.615286
0.615322
0.615358
0.615394
0.615394
0.61543
0.615467
0.615503
0.615539
0.615539
0.615575
0.615611
0.615648
0.615684
0.615684
0.61572
0.615757
0.615793
0.615829
0.615829
0.615866
0.615903
0.615939
0.615976
0.615976
0.616013
0.616049
0.616086
0.616123
0.616123
0.61616
0.616197
0.616234
0.616271
0.616271
0.616308
0.616345
0.616382
0.616419
0.616419
0.616456
0.616493
0.61653
0.616567
0.616567
0.616604
0.616642
0.616679
0.616716
0.616716
0.616753
0.616791
0.616828
0.616865
0.616865
0.616903
0.61694
0.616978
0.617015
0.617015
0.617053
0.61709
0.617128
0.617165
0.617165
0.617203
0.617241
0.617279
0.617316
0.617316
0.617354
0.617392
0.61743
0.617468
0.617468
0.617505
0.617543
0.617581
0.617619
0.617619
0.617657
0.617695
0.617733
0.617771
0.617771
0.61781
0.617848
0.617886
0.617924
0.617924
0.617962
0.618001
0.618039
0.618077
0.618077
0.618116
0.618154
0.618192
0.618231
0.618231
0.618269
0.618308
0.618346
0.618385
0.618385
0.618423
0.618462
0.618501
0.618539
0.618539
0.618578
0.618617
0.618655
0.618694
0.618694
0.618733
0.618772
0.618811
0.61885
0.61885
0.618889
0.618928
0.618967
0.619006
0.619006
0.619045
0.619084
0.619124
0.619163
0.619163
0.619202
0.619242
0.619281
0.619321
0.619321
0.61936
0.619399
0.619439
0.619479
0.619479
0.619518
0.619558
0.619597
0.619637
0.619637
0.619677
0.619716
0.619756
0.619796
0.619796
0.619836
0.619875
0.619915
0.619955
0.619955
0.619995
0.620035
0.620075
0.620115
0.620115
0.620155
0.620195
0.620235
0.620275
0.620275
0.620315
0.620356
0.620396
0.620436
0.620436
0.620476
0.620517
0.620557
0.620597
0.620597
0.620638
0.620678
0.620718
0.620759
0.620759
0.620799
0.62084
0.620881
0.620921
0.620921
0.620962
0.621002
0.621043
0.621084
0.621084
0.621125
0.621165
0.621206
0.621247
0.621247
0.621288
0.621329
0.62137
0.62141
0.62141
0.621451
0.621492
0.621533
0.621574
0.621574
0.621616
0.621657
0.621698
0.621739
0.621739
0.62178
0.621821
0.621863
0.621904
0.621904
0.621945
0.621987
0.622028
0.62207
0.62207
0.622111
0.622153
0.622195
0.622236
0.622236
0.622278
0.62232
0.622362
0.622404
0.622404
0.622445
0.622487
0.622529
0.622571
0.622571
0.622613
0.622655
0.622697
0.622739
0.622739
0.622781
0.622824
0.622866
0.622908
0.622908
0.62295
0.622992
0.623035
0.623077
0.623077
0.623119
0.623161
0.623204
0.623246
0.623246
0.623289
0.623331
0.623374
0.623416
0.623416
0.623459
0.623501
0.623544
0.623587
0.623587
0.623629
0.623672
0.623715
0.623757
0.623757
0.6238
0.623843
0.623886
0.623929
0.623929
0.623972
0.624015
0.624058
0.624101
0.624101
0.624144
0.624187
0.62423
0.624273
0.624273
0.624316
0.624359
0.624402
0.624446
0.624446
0.624489
0.624532
0.624575
0.624619
0.624619
0.624662
0.624705
0.624749
0.624792
0.624792
0.624836
0.624879
0.624923
0.624966
0.624966
0.62501
0.625054
0.625098
0.625141
0.625141
0.625185
0.625229
0.625273
0.625317
0.625317
0.625361
0.625405
0.625449
0.625493
0.625493
0.625538
0.625582
0.625626
0.62567
0.62567
0.625714
0.625759
0.625803
0.625847
0.625847
0.625892
0.625936
0.625981
0.626025
0.626025
0.62607
0.626114
0.626159
0.626203
0.626203
0.626248
0.626293
0.626337
0.626382
0.626382
0.626427
0.626471
0.626516
0.626561
0.626561
0.626606
0.626651
0.626696
0.626741
0.626741
0.626786
0.626831
0.626876
0.626921
0.626921
0.626966
0.627011
0.627056
0.627101
0.627101
0.627146
0.627192
0.627237
0.627282
0.627282
0.627328
0.627373
0.627418
0.627464
0.627464
0.627509
0.627555
0.6276
0.627646
0.627646
0.627691
0.627737
0.627782
0.627828
0.627828
0.627873
0.627919
0.627965
0.628011
0.628011
0.628056
0.628102
0.628148
0.628194
0.628194
0.62824
0.628286
0.628332
0.628378
0.628378
0.628424
0.62847
0.628517
0.628563
0.628563
0.628609
0.628656
0.628702
0.628748
0.628748
0.628795
0.628841
0.628888
0.628934
0.628934
0.628981
0.629027
0.629074
0.629121
0.629121
0.629167
0.629214
0.629261
0.629308
0.629308
0.629354
0.629401
0.629448
0.629495
0.629495
0.629542
0.629589
0.629636
0.629683
0.629683
0.62973
0.629777
0.629824
0.629871
0.629871
0.629918
0.629965
0.630012
0.63006
0.63006
0.630107
0.630154
0.630201
0.630249
0.630249
0.630296
0.630344
0.630391
0.630438
0.630438
0.630486
0.630533
0.630581
0.630628
0.630628
0.630676
0.630724
0.630771
0.630819
0.630819
0.630867
0.630914
0.630962
0.63101
0.63101
0.631058
0.631105
0.631153
0.631201
0.631201
0.631249
0.631297
0.631345
0.631393
0.631393
0.631441
0.631489
0.631537
0.631586
0.631586
0.631634
0.631682
0.631731
0.631779
0.631779
0.631827
0.631876
0.631924
0.631973
0.631973
0.632022
0.63207
0.632119
0.632167
0.632167
0.632216
0.632265
0.632314
0.632362
0.632362
0.632411
0.63246
0.632509
0.632558
0.632558
0.632607
0.632656
0.632705
0.632754
0.632754
0.632803
0.632852
0.632901
0.63295
0.63295
0.632999
0.633048
0.633098
0.633147
0.633147
0.633196
0.633245
0.633295
0.633344
0.633344
0.633393
0.633443
0.633492
0.633542
0.633542
0.633591
0.633641
0.63369
0.63374
0.63374
0.633789
0.633839
0.633889
0.633938
0.633938
0.633988
0.634038
0.634087
0.634137
0.634137
0.634187
0.634237
0.634287
0.634337
0.634337
0.634387
0.634437
0.634486
0.634536
0.634536
0.634587
0.634637
0.634687
0.634737
0.634737
0.634787
0.634837
0.634887
0.634938
0.634938
0.634988
0.635038
0.635089
0.635139
0.635139
0.63519
0.635241
0.635291
0.635342
0.635342
0.635393
0.635443
0.635494
0.635545
0.635545
0.635596
0.635646
0.635697
0.635748
0.635748
0.635799
0.63585
0.635901
0.635952
0.635952
0.636003
0.636054
0.636105
0.636156
0.636156
0.636207
0.636258
0.63631
0.636361
0.636361
0.636412
0.636463
0.636515
0.636566
0.636566
0.636617
0.636669
0.63672
0.636771
0.636771
0.636823
0.636874
0.636926
0.636977
0.636977
0.637029
0.63708
0.637132
0.637184
0.637184
0.637235
0.637287
0.637339
0.63739
0.63739
0.637442
0.637494
0.637546
0.637597
0.637597
0.637649
0.637701
0.637753
0.637805
0.637805
0.637857
0.637909
0.637961
0.638013
0.638013
0.638065
0.638117
0.638169
0.638222
0.638222
0.638274
0.638326
0.638379
0.638431
0.638431
0.638483
0.638536
0.638588
0.638641
0.638641
0.638693
0.638746
0.638799
0.638851
0.638851
0.638904
0.638957
0.63901
0.639062
0.639062
0.639115
0.639168
0.639221
0.639274
0.639274
0.639327
0.63938
0.639433
0.639486
0.639486
0.639539
0.639592
0.639645
0.639698
0.639698
0.639751
0.639804
0.639857
0.639911
0.639911
0.639964
0.640017
0.64007
0.640124
0.640124
0.640177
0.64023
0.640284
0.640337
0.640337
0.640391
0.640444
0.640498
0.640551
0.640551
0.640605
0.640658
0.640712
0.640765
0.640765
0.640819
0.640873
0.640926
0.64098
0.64098
0.641034
0.641087
0.641141
0.641195
0.641195
0.641249
0.641303
0.641357
0.64141
0.64141
0.641464
0.641518
0.641572
0.641626
0.641626
0.641681
0.641735
0.641789
0.641843
0.641843
0.641897
0.641952
0.642006
0.64206
0.64206
0.642115