<?xml version="1.0"?>
<VTKFile type="UnstructuredGrid" version="0.1" byte_order="LittleEndian">
<UnstructuredGrid>
<Piece NumberOfPoints="5000" NumberOfCells="4000">
<PointData Scalars="Reaction 0">
<DataArray type="Float32" Name="Reaction 0" format="ascii">
0.57305
0.57305
0.57305
0.57305
0.57305
0.57305
0.573051
0.573051
0.573051
0.573051
0.573051
0.573051
0.573051
0.573051
0.573051
0.573051
0.573051
0.573051
0.573051
0.573051
0.573051
0.573051
0.573051
0.573051
0.573051
0.573051
0.573051
0.573051
0.573052
0.573052
0.573052
0.573052
0.573052
0.573052
0.573052
0.573052
0.573052
0.573052
0.573052
0.573053
0.573053
0.573053
0.573053
0.573053
0.573053
0.573053
0.573053
0.573053
0.573054
0.573054
0.573054
0.573054
0.573054
0.573054
0.573054
0.573054
0.573055
0.573055
0.573055
0.573055
0.573055
0.573055
0.573056
0.573056
0.573056
0.573056
0.573056
0.573056
0.573057
0.573057
0.573057
0.573057
0.573057
0.573058
0.573058
0.573058
0.573058
0.573058
0.573059
0.573059
0.573059
0.573059
0.573059
0.57306
0.57306
0.57306
0.57306
0.57306
0.573061
0.573061
0.573061
0.573061
0.573062
0.573062
0.573062
0.573062
0.573062
0.573063
0.573063
0.573063
0.573063
0.573064
0.573064
0.573064
0.573065
0.573065
0.573065
0.573065
0.573066
0.573066
0.573066
0.573067
0.573067
0.573067
0.573068
0.573068
0.573068
0.573068
0.573069
0.573069
0.573069
0.57307
0.57307
0.57307
0.573071
0.573071
0.573071
0.573072
0.573072
0.573072
0.573072
0.573073
0.573073
0.573074
0.573074
0.573074
0.573075
0.573075
0.573075
0.573076
0.573076
0.573076
0.573077
0.573077
0.573078
0.573078
0.573078
0.573079
0.573079
0.57308
0.57308
0.57308
0.573081
0.573081
0.573082
0.573082
0.573082
0.573083
0.573083
0.573084
0.573084
0.573084
0.573085
0.573085
0.573086
0.573086
0.573086
0.573087
0.573087
0.573088
0.573088
0.573089
0.573089
0.57309
0.57309
0.57309
0.573091
0.573091
0.573092
0.573093
0.573093
0.573093
0.573094
0.573094
0.573095
0.573095
0.573096
0.573096
0.573097
0.573097
0.573097
0.573098
0.573099
0.573099
0.5731
0.5731
0.573101
0.573101
0.573102
0.573102
0.573102
0.573103
0.573104
0.573104
0.573105
0.573105
0.573106
0.573106
0.573107
0.573108
0.573108
0.573108
0.573109
0.57311
0.573111
0.573111
0.573111
0.573112
0.573113
0.573113
0.573113
0.573114
0.573115
0.573116
0.573116
0.573116
0.573117
0.573118
0.573119
0.573119
0.573119
0.57312
0.573121
0.573122
0.573122
0.573122
0.573123
0.573124
0.573125
0.573125
0.573125
0.573126
0.573127
0.573128
0.573129
0.573129
0.573129
0.57313
0.573131
0.573132
0.573132
0.573133
0.573133
0.573134
0.573135
0.573135
0.573136
0.573137
0.573138
0.573138
0.573138
0.573139
0.57314
0.573141
0.573142
0.573142
0.573143
0.573144
0.573144
0.573145
0.573145
0.573146
0.573147
0.573148
0.573149
0.573149
0.57315
0.573151
0.573152
0.573153
0.573153
0.573153
0.573154
0.573155
0.573156
0.573156
0.573157
0.573158
0.573159
0.57316
0.57316
0.573161
0.573162
0.573163
0.573164
0.573164
0.573165
0.573166
0.573167
0.573168
0.573168
0.573169
0.57317
0.573171
0.573172
0.573172
0.573173
0.573174
0.573175
0.573176
0.573176
0.573177
0.573178
0.573179
0.57318
0.57318
0.573181
0.573182
0.573183
0.573184
0.573184
0.573185
0.573186
0.573187
0.573188
0.573188
0.573189
0.57319
0.573191
0.573193
0.573193
0.573194
0.573195
0.573196
0.573197
0.573197
0.573198
0.573199
0.5732
0.573201
0.573201
0.573202
0.573204
0.573205
0.573206
0.573206
0.573207
0.573208
0.573209
0.57321
0.57321
0.573212
0.573213
0.573214
0.573215
0.573215
0.573216
0.573217
0.573219
0.57322
0.57322
0.573221
0.573222
0.573223
0.573224
0.573224
0.573226
0.573227
0.573228
0.573229
0.573229
0.57323
0.573232
0.573233
0.573234
0.573234
0.573235
0.573237
0.573238
0.573239
0.573239
0.57324
0.573242
0.573243
0.573244
0.573244
0.573246
0.573247
0.573248
0.573249
0.573249
0.573251
0.573252
0.573253
0.573255
0.573255
0.573256
0.573257
0.573259
0.57326
0.57326
0.573261
0.573262
0.573264
0.573265
0.573265
0.573266
0.573268
0.573269
0.573271
0.573271
0.573272
0.573273
0.573275
0.573276
0.573276
0.573277
0.573279
0.57328
0.573282
0.573282
0.573283
0.573284
0.573286
0.573287
0.573287
0.573289
0.57329
0.573291
0.573293
0.573293
0.573294
0.573296
0.573297
0.573298
0.573298
0.5733
0.573301
0.573303
0.573304
0.573304
0.573306
0.573307
0.573309
0.57331
0.57331
0.573312
0.573313
0.573315
0.573316
0.573316
0.573318
0.573319
0.573321
0.573322
0.573322
0.573324
0.573325
0.573327
0.573328
0.573328
0.57333
0.573331
0.573333
0.573334
0.573334
0.573336
0.573337
0.573339
0.573341
0.573341
0.573342
0.573344
0.573345
0.573347
0.573347
0.573348
0.57335
0.573352
0.573353
0.573353
0.573355
0.573356
0.573358
0.57336
0.57336
0.573361
0.573363
0.573364
0.573366
0.573366
0.573368
0.573369
0.573371
0.573373
0.573373
0.573374
0.573376
0.573378
0.573379
0.573379
0.573381
0.573383
0.573384
0.573386
0.573386
0.573388
0.573389
0.573391
0.573393
0.573393
0.573395
0.573396
0.573398
0.5734
0.5734
0.573401
0.573403
0.573405
0.573407
0.573407
0.573408
0.57341
0.573412
0.573414
0.573414
0.573415
0.573417
0.573419
0.573421
0.573421
0.573422
0.573424
0.573426
0.573428
0.573428
0.57343
0.573431
0.573433
0.573435
0.573435
0.573437
0.573439
0.57344
0.573442
0.573442
0.573444
0.573446
0.573448
0.57345
0.57345
0.573451
0.573453
0.573455
0.573457
0.573457
0.573459
0.573461
0.573463
0.573465
0.573465
0.573466
0.573468
0.57347
0.573472
0.573472
0.573474
0.573476
0.573478
0.57348
0.57348
0.573482
0.573484
0.573486
0.573487
0.573487
0.573489
0.573491
0.573493
0.573495
0.573495
0.573497
0.573499
0.573501
0.573503
0.573503
0.573505
0.573507
0.573509
0.573511
0.573511
0.573513
0.573515
0.573517
0.573519
0.573519
0.573521
0.573523
0.573525
0.573527
0.573527
0.573529
0.573531
0.573533
0.573535
0.573535
0.573537
0.573539
0.573541
0.573543
0.573543
0.573546
0.573548
0.57355
0.573552
0.573552
0.573554
0.573556
0.573558
0.57356
0.57356
0.573562
0.573564
0.573566
0.573569
0.573569
0.573571
0.573573
0.573575
0.573577
0.573577
0.573579
0.573581
0.573584
0.573586
0.573586
0.573588
0.57359
0.573592
0.573594
0.573594
0.573597
0.573599
0.573601
0.573603
0.573603
0.573605
0.573608
0.57361
0.573612
0.573612
0.573614
0.573616
0.573619
0.573621
0.573621
0.573623
0.573625
0.573628
0.57363
0.57363
0.573632
0.573634
0.573637
0.573639
0.573639
0.573641
0.573643
0.573646
0.573648
0.573648
0.57365
0.573653
0.573655
0.573657
0.573657
0.573659
0.573662
0.573664
0.573666
0.573666
0.573669
0.573671
0.573673
0.573676
0.573676
0.573678
0.57368
0.573683
0.573685
0.573685
0.573688
0.57369
0.573692
0.573695
0.573695
0.573697
0.573699
0.573702
0.573704
0.573704
0.573707
0.573709
0.573711
0.573714
0.573714
0.573716
0.573719
0.573721
0.573724
0.573724
0.573726
0.573729
0.573731
0.573733
0.573733
0.573736
0.573738
0.573741
0.573743
0.573743
0.573746
0.573748
0.573751
0.573753
0.573753
0.573756
0.573758
0.573761
0.573763
0.573763
0.573766
0.573768
0.573771
0.573773
0.573773
0.573776
0.573779
0.573781
0.573784
0.573784
0.573786
0.573789
0.573791
0.573794
0.573794
0.573796
0.573799
0.573802
0.573804
0.573804
0.573807
0.573809
0.573812
0.573815
0.573815
0.573817
0.57382
0.573823
0.573825
0.573825
0.573828
0.57383
0.573833
0.573836
0.573836
0.573838
0.573841
0.573844
0.573846
0.573846
0.573849
0.573852
0.573854
0.573857
0.573857
0.57386
0.573862
0.573865
0.573868
0.573868
0.573871
0.573873
0.573876
0.573879
0.573879
0.573881
0.573884
0.573887
0.57389
0.57389
0.573892
0.573895
0.573898
0.573901
0.573901
0.573903
0.573906
0.573909
0.573912
0.573912
0.573915
0.573917
0.57392
0.573923
0.573923
0.573926
0.573929
0.573932
0.573934
0.573934
0.573937
0.57394
0.573943
0.573946
0.573946
0.573949
0.573952
0.573954
0.573957
0.573957
0.57396
0.573963
0.573966
0.573969
0.573969
0.573972
0.573975
0.573978
0.573981
0.573981
0.573983
0.573986
0.573989
0.573992
0.573992
0.573995
0.573998
0.574001
0.574004
0.574004
0.574007
0.57401
0.574013
0.574016
0.574016
0.574019
0.574022
0.574025
0.574028
0.574028
0.574031
0.574034
0.574037
0.57404
0.57404
0.574043
0.574046
0.574049
0.574052
0.574052
0.574055
0.574058
0.574061
0.574064
0.574064
0.574067
0.57407
0.574073
0.574076
0.574076
0.57408
0.574083
0.574086
0.574089
0.574089
0.574092
0.574095
0.574098
0.574101
0.574101
0.574104
0.574108
0.574111
0.574114
0.574114
0.574117
0.57412
0.574123
0.574126
0.574126
0.57413
0.574133
0.574136
0.574139
0.574139
0.574142
0.574146
0.574149
0.574152
0.574152
0.574155
0.574158
0.574162
0.574165
0.574165
0.574168
0.574171
0.574175
0.574178
0.574178
0.574181
0.574184
0.574188
0.574191
0.574191
0.574194
0.574197
0.574201
0.574204
0.574204
0.574207
0.574211
0.574214
0.574217
0.574217
0.57422
0.574224
0.574227
0.57423
0.57423
0.574234
0.574237
0.57424
0.574244
0.574244
0.574247
0.574251
0.574254
0.574257
0.574257
0.574261
0.574264
0.574267
0.574271
0.574271
0.574274
0.574278
0.574281
0.574285
0.574285
0.574288
0.574291
0.574295
0.574298
0.574298
0.574302
0.574305
0.574309
0.574312
0.574312
0.574316
0.574319
0.574322
0.574326
0.574326
0.574329
0.574333
0.574336
0.57434
0.57434
0.574343
0.574347
0.574351
0.574354
0.574354
0.574358
0.574361
0.574365
0.574368
0.574368
0.574372
0.574375
0.574379
0.574382
0.574382
0.574386
0.57439
0.574393
0.574397
0.574397
0.5744
0.574404
0.574408
0.574411
0.574411
0.574415
0.574419
0.574422
0.574426
0.574426
0.574429
0.574433
0.574437
0.57444
0.57444
0.574444
0.574448
0.574451
0.574455
0.574455
0.574459
0.574463
0.574466
0.57447
0.57447
0.574474
0.574477
0.574481
0.574485
0.574485
0.574489
0.574492
0.574496
0.5745
0.5745
0.574504
0.574507
0.574511
0.574515
0.574515
0.574519
0.574522
0.574526
0.57453
0.57453
0.574534
0.574538
0.574541
0.574545
0.574545
0.574549
0.574553
0.574557
0.574561
0.574561
0.574564
0.574568
0.574572
0.574576
0.574576
0.57458
0.574584
0.574588
0.574592
0.574592
0.574595
0.574599
0.574603
0.574607
0.574607
0.574611
0.574615
0.574619
0.574623
0.574623
0.574627
0.574631
0.574634
0.574638
0.574638
0.574642
0.574646
0.574651
0.574655
0.574655
0.574659
0.574663
0.574667
0.574671
0.574671
0.574675
0.574679
0.574683
0.574687
0.574687
0.574691
0.574695
0.574699
0.574703
0.574703
0.574707
0.574711
0.574715
0.574719
0.574719
0.574723
0.574727
0.574732
0.574736
0.574736
0.57474
0.574744
0.574748
0.574752
0.574752
0.574756
0.57476
0.574765
0.574769
0.574769
0.574773
0.574777
0.574781
0.574785
0.574785
0.57479
0.574794
0.574798
0.574802
0.574802
0.574806
0.574811
0.574815
0.574819
0.574819
0.574823
0.574828
0.574832
0.574836
0.574836
0.57484
0.574845
0.574849
0.574853
0.574853
0.574857
0.574862
0.574866
0.57487
0.57487
0.574875
0.574879
0.574883
0.574887
0.574887
0.574892
0.574896
0.574901
0.574905
0.574905
0.574909
0.574914
0.574918
0.574922
0.574922
0.574927
0.574931
0.574935
0.57494
0.57494
0.574944
0.574949
0.574953
0.574958
0.574958
0.574962
0.574966
0.574971
0.574975
0.574975
0.57498
0.574984
0.574989
0.574993
0.574993
0.574998
0.575002
0.575007
0.575011
0.575011
0.575016
0.57502
0.575025
0.575029
0.575029
0.575034
0.575038
0.575043
0.575047
0.575047
0.575052
0.575056
0.575061
0.575066
0.575066
0.57507
0.575075
0.575079
0.575084
0.575084
0.575089
0.575093
0.575098
0.575102
0.575102
0.575107
0.575112
0.575116
0.575121
0.575121
0.575126
0.57513
0.575135
0.57514
0.57514
0.575144
0.575149
0.575154
0.575158
0.575158
0.575163
0.575168
0.575173
0.575177
0.575177
0.575182
0.575187
0.575192
0.575196
0.575196
0.575201
0.575206
0.575211
0.575215
0.575215
0.57522
0.575225
0.57523
0.575235
0.575235
0.575239
0.575244
0.575249
0.575254
0.575254
0.575259
0.575264
0.575268
0.575273
0.575273
0.575278
0.575283
0.575288
0.575293
0.575293
0.575298
0.575303
0.575307
0.575312
0.575312
0.575317
0.575322
0.575327
0.575332
0.575332
0.575337
0.575342
0.575347
0.575352
0.575352
0.575357
0.575362
0.575367
0.575372
0.575372
0.575377
0.575382
0.575387
0.575392
0.575392
0.575397
0.575402
0.575407
0.575412
0.575412
0.575417
0.575422
0.575427
0.575432
0.575432
0.575437
0.575442
0.575447
0.575453
0.575453
0.575458
0.575463
0.575468
0.575473
0.575473
0.575478
0.575483
0.575489
0.575494
0.575494
0.575499
0.575504
0.575509
0.575515
0.575515
0.57552
0.575525
0.57553
0.575535
0.575535
0.575541
0.575546
0.575551
0.575556
0.575556
0.575562
0.575567
0.575572
0.575577
0.575577
0.575583
0.575588
0.575593
0.575598
0.575598
0.575604
0.575609
0.575614
0.57562
0.57562
0.575625
0.57563
0.575636
0.575641
0.575641
0.575646
0.575652
0.575657
0.575663
0.575663
0.575668
0.575673
0.575679
0.575684
0.575684
0.57569
0.575695
0.5757
0.575706
0.575706
0.575711
0.575717
0.575722
0.575728
0.575728
0.575733
0.575739
0.575744
0.57575
0.57575
0.575755
0.575761
0.575766
0.575772
0.575772
0.575777
0.575783
0.575788
0.575794
0.575794
0.5758
0.575805
0.575811
0.575816
0.575816
0.575822
0.575827
0.575833
0.575839
0.575839
0.575844
0.57585
0.575856
0.575861
0.575861
0.575867
0.575873
0.575878
0.575884
0.575884
0.57589
0.575895
0.575901
0.575907
0.575907
0.575912
0.575918
0.575924
0.57593
0.57593
0.575935
0.575941
0.575947
0.575953
0.575953
0.575958
0.575964
0.57597
0.575976
0.575976
0.575981
0.575987
0.575993
0.575999
0.575999
0.576005
0.576011
0.576016
0.576022
0.576022
0.576028
0.576034
0.57604
0.576046
0.576046
0.576052
0.576058
0.576063
0.576069
0.576069
0.576075
0.576081
0.576087
0.576093
0.576093
0.576099
0.576105
0.576111
0.576117
0.576117
0.576123
0.576129
0.576135
0.576141
0.576141
0.576147
0.576153
0.576159
0.576165
0.576165
0.576171
0.576177
0.576183
0.576189
0.576189
0.576195
0.576201
0.576207
0.576213
0.576213
0.576219
0.576225
0.576231
0.576238
0.576238
0.576244
0.57625
0.576256
0.576262
0.576262
0.576269
0.576275
0.576281
0.576287
0.576287
0.576293
0.5763
0.576306
0.576312
0.576312
0.576318
0.576325
0.576331
0.576337
0.576337
0.576343
0.57635
0.576356
0.576362
0.576362
0.576369
0.576375
0.576381
0.576388
0.576388
0.576394
0.5764
0.576407
0.576413
0.576413
0.576419
0.576426
0.576432
0.576438
0.576438
0.576445
0.576451
0.576458
0.576464
0.576464
0.57647
0.576477
0.576483
0.57649
0.57649
0.576496
0.576503
0.576509
0.576516
0.576516
0.576522
0.576529
0.576535
0.576542
0.576542
0.576548
0.576555
0.576561
0.576568
0.576568
0.576574
0.576581
0.576588
0.576594
0.576594
0.576601
0.576607
0.576614
0.576621
0.576621
0.576627
0.576634
0.57664
0.576647
0.576647
0.576654
0.57666
0.576667
0.576674
0.576674
0.57668
0.576687
0.576694
0.576701
0.576701
0.576707
0.576714
0.576721
0.576728
0.576728
0.576734
0.576741
0.576748
0.576755
0.576755
0.576761
0.576768
0.576775
0.576782
0.576782
0.576789
0.576796
0.576802
0.576809
0.576809
0.576816
0.576823
0.57683
0.576837
0.576837
0.576844
0.57685
0.576857
0.576864
0.576864
0.576871
0.576878
0.576885
0.576892
0.576892
0.576899
0.576906
0.576913
0.57692
0.57692
0.576927
0.576934
0.576941
0.576948
0.576948
0.576955
0.576962
0.576969
0.576976
0.576976
0.576983
0.57699
0.576997
0.577004
0.577004
0.577012
0.577019
0.577026
0.577033
0.577033
0.57704
0.577047
0.577054
0.577061
0.577061
0.577069
0.577076
0.577083
0.57709
0.57709
0.577097
0.577104
0.577112
0.577119
0.577119
0.577126
0.577133
0.577141
0.577148
0.577148
0.577155
0.577163
0.57717
0.577177
0.577177
0.577185
0.577192
0.577199
0.577207
0.577207
0.577214
0.577221
0.577229
0.577236
0.577236
0.577244
0.577251
0.577258
0.577266
0.577266
0.577273
0.577281
0.577288
0.577296
0.577296
0.577303
0.577311
0.577318
0.577326
0.577326
0.577333
0.577341
0.577348
0.577356
0.577356
0.577363
0.577371
0.577378
0.577386
0.577386
0.577393
0.577401
0.577409
0.577416
0.577416
0.577424
0.577431
0.577439
0.577447
0.577447
0.577454
0.577462
0.57747
0.577477
0.577477
0.577485
0.577493
0.5775
0.577508
0.577508
0.577516
0.577524
0.577531
0.577539
0.577539
0.577547
0.577555
0.577562
0.57757
0.57757
0.577578
0.577586
0.577594
0.577602
0.577602
0.577609
0.577617
0.577625
0.577633
0.577633
0.577641
0.577649
0.577657
0.577665
0.577665
0.577672
0.57768
0.577688
0.577696
0.577696
0.577704
0.577712
0.57772
0.577728
0.577728
0.577736
0.577744
0.577752
0.57776
0.57776
0.577768
0.577776
0.577784
0.577792
0.577792
0.5778
0.577809
0.577817
0.577825
0.577825
0.577833
0.577841
0.577849
0.577857
0.577857
0.577865
0.577874
0.577882
0.57789
0.57789
0.577898
0.577906
0.577914
0.577923
0.577923
0.577931
0.577939
0.577947
0.577956
0.577956
0.577964
0.577972
0.57798
0.577989
0.577989
0.577997
0.578005
0.578014
0.578022
0.578022
0.57803
0.578038
0.578047
0.578055
0.578055
0.578064
0.578072
0.57808
0.578089
0.578089
0.578097
0.578106
0.578114
0.578123
0.578123
0.578131
0.57814
0.578148
0.578157
0.578157
0.578165
0.578174
0.578183
0.578191
0.578191
0.5782
0.578208
0.578217
0.578225
0.578225
0.578234
0.578243
0.578251
0.57826
0.57826
0.578269
0.578277
0.578286
0.578295
0.578295
0.578303
0.578312
0.578321
0.578329
0.578329
0.578338
0.578347
0.578356
0.578364
0.578364
0.578373
0.578382
0.578391
0.5784
0.5784
0.578408
0.578417
0.578426
0.578435
0.578435
0.578444
0.578453
0.578461
0.57847
0.57847
0.578479
0.578488
0.578497
0.578506
0.578506
0.578515
0.578524
0.578533
0.578542
0.578542
0.578551
0.57856
0.578569
0.578578
0.578578
0.578587
0.578596
0.578605
0.578614
0.578614
0.578623
0.578632
0.578641
0.57865
0.57865
0.578659
0.578669
0.578678
0.578687
0.578687
0.578696
0.578705
0.578714
0.578724
0.578724
0.578733
0.578742
0.578751
0.57876
0.57876
0.57877
0.578779
0.578788
0.578798
0.578798
0.578807
0.578816
0.578825
0.578835
0.578835
0.578844
0.578853
0.578863
0.578872
0.578872
0.578882
0.578891
0.5789
0.57891
0.57891
0.578919
0.578929
0.578938
0.578947
0.578947
0.578957
0.578966
0.578976
0.578985
0.578985
0.578995
0.579004
0.579014
0.579023
0.579023
0.579033
0.579042
0.579052
0.579061
0.579061
0.579071
0.579081
0.57909
0.5791
0.5791
0.57911
0.579119
0.579129
0.579139
0.579139
0.579149
0.579158
0.579168
0.579178
0.579178
0.579188
0.579197
0.579207
0.579217
0.579217
0.579227
0.579237
0.579247
0.579256
0.579256
0.579266
0.579276
0.579286
0.579296
0.579296
0.579306
0.579316
0.579326
0.579335
0.579335
0.579345
0.579355
0.579365
0.579375
0.579375
0.579385
0.579395
0.579405
0.579415
0.579415
0.579425
0.579435
0.579446
0.579456
0.579456
0.579466
0.579476
0.579486
0.579496
0.579496
0.579506
0.579516
0.579526
0.579537
0.579537
0.579547
0.579557
0.579567
0.579577
0.579577
0.579588
0.579598
0.579608
0.579618
0.579618
0.579629
0.579639
0.579649
0.57966
0.57966
0.57967
0.57968
0.579691
0.579701
0.579701
0.579711
0.579722
0.579732
0.579743
0.579743
0.579753
0.579763
0.579774
0.579784
0.579784
0.579795
0.579805
0.579816
0.579826
0.579826
0.579837
0.579847
0.579858
0.579868
0.579868
0.579879
0.57989
0.5799
0.579911
0.579911
0.579921
0.579932
0.579943
0.579953
0.579953
0.579964
0.579975
0.579985
0.579996
0.579996
0.580007
0.580018
0.580028
0.580039
0.580039
0.58005
0.580061
0.580071
0.580082
0.580082
0.580093
0.580104
0.580114
0.580125
0.580125
0.580136
0.580147
0.580158
0.580169
0.580169
0.58018
0.580191
0.580202
0.580213
0.580213
0.580224
0.580235
0.580246
0.580257
0.580257
0.580268
0.580279
0.58029
0.580301
0.580301
0.580313
0.580324
0.580335
0.580346
0.580346
0.580357
0.580368
0.580379
0.580391
0.580391
0.580402
0.580413
0.580424
0.580436
0.580436
0.580447
0.580458
0.580469
0.580481
0.580481
0.580492
0.580503
0.580515
0.580526
0.580526
0.580537
0.580549
0.58056
0.580572
0.580572
0.580583
0.580594
0.580606
0.580617
0.580617
0.580629
0.58064
0.580652
0.580663
0.580663
0.580675
0.580686
0.580698
0.580709
0.580709
0.580721
0.580733
0.580744
0.580756
0.580756
0.580767
0.580779
0.580791
0.580802
0.580802
0.580814
0.580826
0.580838
0.580849
0.580849
0.580861
0.580873
0.580885
0.580896
0.580896
0.580908
0.58092
0.580932
0.580944
0.580944
0.580956
0.580967
0.580979
0.580991
0.580991
0.581003
0.581015
0.581027
0.581039
0.581039
0.581051
0.581063
0.581075
0.581087
0.581087
0.581099
0.581111
0.581123
0.581135
0.581135
0.581147
0.581159
0.581171
0.581183
0.581183
0.581195
0.581207
0.58122
0.581232
0.581232
0.581244
0.581256
0.581268
0.58128
0.58128
0.581293
0.581305
0.581317
0.58133
0.58133
0.581342
0.581354
0.581367
0.581379
0.581379
0.581392
0.581404
0.581416
0.581429
0.581429
0.581441
0.581454
0.581466
0.581479
0.581479
0.581491
0.581504
0.581516
0.581529
0.581529
0.581542
0.581554
0.581567
0.581579
0.581579
0.581592
0.581605
0.581617
0.58163
0.58163
0.581643
0.581655
0.581668
0.581681
0.581681
0.581693
0.581706
0.581719
0.581732
0.581732
0.581745
0.581757
0.58177
0.581783
0.581783
0.581796
0.581809
0.581822
0.581835
0.581835
0.581848
0.58186
0.581873
0.581886
0.581886
0.581899
0.581912
0.581925
0.581938
0.581938
0.581951
0.581964
0.581978
0.581991
0.581991
0.582004
0.582017
0.58203
0.582043
0.582043
0.582056
0.582069
0.582083
0.582096
0.582096
0.582109
0.582122
0.582136
0.582149
0.582149
0.582162
0.582175
0.582189
0.582202
0.582202
0.582215
0.582229
0.582242
0.582256
0.582256
0.582269
0.582282
0.582296
0.582309
0.582309
0.582323
0.582336
0.58235
0.582363
0.582363
0.582377
0.58239
0.582404
0.582417
0.582417
0.582431
0.582444
0.582458
0.582472
0.582472
0.582485
0.582499
0.582513
0.582526
0.582526
0.58254
0.582554
0.582568
0.582582
0.582582
0.582595
0.582609
0.582623
0.582637
0.582637
0.582651
0.582665
0.582679
0.582693
0.582693
0.582707
0.582721
0.582735
0.582749
0.582749
0.582763
0.582777
0.582791
0.582805
0.582805
0.582819
0.582833
0.582847
0.582861
0.582861
0.582875
0.58289
0.582904
0.582918
0.582918
0.582932
0.582946
0.582961
0.582975
0.582975
0.582989
0.583003
0.583018
0.583032
0.583032
0.583046
0.583061
0.583075
0.58309
0.58309
0.583104
0.583118
0.583133
0.583147
0.583147
0.583162
0.583176
0.583191
0.583205
0.583205
0.58322
0.583234
0.583249
0.583264
0.583264
0.583278
0.583293
0.583307
0.583322
0.583322
0.583337
0.583351
0.583366
0.583381
0.583381
0.583396
0.58341
0.583425
0.58344
0.58344
0.583455
0.58347
0.583485
0.583499
0.583499
0.583514
0.583529
0.583544
0.583559
0.583559
0.583574
0.583589
0.583604
0.583619
0.583619
0.583634
0.583649
0.583664
0.583679
0.583679
0.583694
0.583709
0.583724
0.583739
0.583739
0.583754
0.58377
0.583785
0.5838
0.5838
0.583815
0.58383
0.583846
0.583861
0.583861
0.583876
0.583892
0.583907
0.583923
0.583923
0.583938
0.583954
0.583969
0.583985
0.583985
0.584
0.584016
0.584031
0.584047
0.584047
0.584062
0.584078
0.584093
0.584109
0.584109
0.584125
0.58414
0.584156
0.584172
0.584172
0.584187
0.584203
0.584219
0.584234
0.584234
0.58425
0.584266
0.584282
0.584298
0.584298
0.584313
0.584329
0.584345
0.584361
0.584361
0.584377
0.584393
0.584409
0.584425
0.584425
0.584441
0.584457
0.584473
0.584489
0.584489
0.584505
0.584521
0.584537
0.584553
0.584553
0.584569
0.584586
0.584602
0.584618
0.584618
0.584634
0.58465
0.584667
0.584683
0.584683
0.584699
0.584716
0.584732
0.584748
0.584748
0.584765
0.584781
0.584797
0.584814
0.584814
0.58483
0.584847
0.584863
0.58488
0.58488
0.584896
0.584913
0.584929
0.584946
0.584946
0.584962
0.584979
0.584996
0.585012
0.585012
0.585029
0.585045
0.585062
0.585079
0.585079
0.585095
0.585112
0.585129
0.585146
0.585146
0.585162
0.585179
0.585196
0.585213
0.585213
0.58523
0.585247
0.585264
0.585281
0.585281
0.585298
0.585315
0.585332
0.585349
0.585349
0.585367
0.585384
0.585401
0.585418
0.585418
0.585435
0.585452
0.58547
0.585487
0.585487
0.585504
0.585521
0.585539
0.585556
0.585556
0.585573
0.585591
0.585608
0.585626
0.585626
0.585643
0.58566
0.585678
0.585695
0.585695
0.585713
0.58573
0.585748
0.585765
0.585765
0.585783
0.585801
0.585818
0.585836
0.585836
0.585853
0.585871
0.585889
0.585906
0.585906
0.585924
0.585942
0.58596
0.585978
0.585978
0.585995
0.586013
0.586031
0.586049
0.586049
0.586067
0.586085
0.586103
0.586121
0.586121
0.586139
0.586157
0.586175
0.586193
0.586193
0.586211
0.586229
0.586247
0.586265
0.586265
0.586283
0.586301
0.58632
0.586338
0.586338
0.586356
0.586374
0.586393
0.586411
0.586411
0.586429
0.586447
0.586466
0.586484
0.586484
0.586502
0.586521
0.586539
0.586558
0.586558
0.586576
0.586595
0.586613
0.586632
0.586632
0.58665
0.586669
0.586687
0.586706
0.586706
0.586725
0.586744
0.586762
0.586781
0.586781
0.5868
0.586819
0.586838
0.586857
0.586857
0.586876
0.586894
0.586913
0.586932
0.586932
0.586951
0.58697
0.586989
0.587008
0.587008
0.587027
0.587047
0.587066
0.587085
0.587085
0.587104
0.587123
0.587142
0.587161
0.587161
0.587181
0.5872
0.587219
0.587238
0.587238
0.587258
0.587277
0.587296
0.587316
0.587316
0.587335
0.587355
0.587374
0.587393
0.587393
0.587413
0.587432
0.587452
0.587472
0.587472
0.587491
0.587511
0.58753
0.58755
0.58755
0.58757
0.587589
0.587609
0.587629
0.587629
0.587649
0.587668
0.587688
0.587708
0.587708
0.587728
0.587748
0.587768
0.587788
0.587788
0.587807
0.587827
0.587847
0.587867
0.587867
0.587887
0.587907
0.587927
0.587948
0.587948
0.587968
0.587988
0.588008
0.588028
0.588028
0.588048
0.588068
0.588089
0.588109
0.588109
0.588129
0.588149
0.58817
0.58819
0.58819
0.58821
0.588231
0.588251
0.588272
0.588272
0.588293
0.588313
0.588334
0.588355
0.588355
0.588375
0.588396
0.588417
0.588437
0.588437
0.588458
0.588479
0.5885
0.588521
0.588521
0.588541
0.588562
0.588583
0.588604
0.588604
0.588625
0.588646
0.588667
0.588688
0.588688
0.588709
0.58873
0.588751
0.588772
0.588772
0.588793
0.588814
0.588835
0.588857
0.588857
0.588878
0.588899
0.58892
0.588942
0.588942
0.588963
0.588984
0.589006
0.589027
0.589027
0.589048
0.58907
0.589091
0.589113
0.589113
0.589134
0.589156
0.589177
0.589199
0.589199
0.58922
0.589242
0.589264
0.589285
0.589285
0.589307
0.589329
0.589351
0.589372
0.589372
0.589394
0.589416
0.589438
0.58946
0.58946
0.589482
0.589503
0.589525
0.589547
0.589547
0.589569
0.589591
0.589613
0.589635
0.589635
0.589657
0.589679
0.589702
0.589724
0.589724
0.589746
0.589768
0.58979
0.589812
0.589812
0.589835
0.589857
0.589879
0.589902
0.589902
0.589924
0.589947
0.589969
0.589992
0.589992
0.590015
0.590037
0.59006
0.590083
0.590083
0.590105
0.590128
0.590151
0.590173
0.590173
0.590196
0.590219
0.590242
0.590265
0.590265
0.590288
0.590311
0.590333
0.590356
0.590356
0.590379
0.590402
0.590425
0.590448
0.590448
0.590471
0.590495
0.590518
0.590541
0.590541
0.590564
0.590587
0.59061
0.590634
0.590634
0.590657
0.59068
0.590704
0.590727
0.590727
0.59075
0.590774
0.590797
0.590821
0.590821
0.590844
0.590868
0.590891
0.590915
0.590915
0.590938
0.590962
0.590986
0.591009
0.591009
0.591033
0.591057
0.59108
0.591104
0.591104
0.591128
0.591152
0.591176
0.5912
0.5912
0.591224
0.591247
0.591271
0.591295
0.591295
0.591319
0.591343
0.591367
0.591391
0.591391
0.591416
0.59144
0.591464
0.591488
0.591488
0.591512
0.591536
0.591561
0.591585
0.591585
0.591609
0.591634
0.591658
0.591683
0.591683
0.591708
0.591732
0.591757
0.591781
0.591781
0.591806
0.591831
0.591856
0.59188
0.59188
0.591905
0.59193
0.591955
0.59198
0.59198
0.592004
0.592029
0.592054
0.592079
0.592079
0.592104
0.592129
0.592154
0.592179
0.592179
0.592204
0.592229
0.592255
0.59228
0.59228
0.592305
0.59233
0.592355
0.592381
0.592381
0.592406
0.592431
0.592457
0.592482
0.592482
0.592507
0.592533
0.592558
0.592584
0.592584
0.592609
0.592635
0.592661
0.592686
0.592686
0.592712
0.592738
0.592763
0.592789
0.592789
0.592815
0.59284
0.592866
0.592892
0.592892
0.592918
0.592944
0.59297
0.592996
0.592996
0.593022
0.593048
0.593074
0.5931
0.5931
0.593126
0.593152
0.593178
0.593204
0.593204
0.59323
0.593257
0.593283
0.593309
0.593309
0.593335
0.593362
0.593388
0.593415
0.593415
0.593441
0.593468
0.593494
0.593521
0.593521
0.593548
0.593574
0.593601
0.593628
0.593628
0.593655
0.593682
0.593709
0.593735
0.593735
0.593762
0.593789
0.593816
0.593843
0.593843
0.59387
0.593897
0.593924
0.593951
0.593951
0.593979
0.594006
0.594033
0.59406
0.59406
0.594087
0.594115
0.594142
0.594169
0.594169
0.594197
0.594224
0.594251
0.594279
0.594279
0.594306
0.594334
0.594361
0.594389
0.594389
0.594417
0.594444
0.594472
0.5945
0.5945
0.594527
0.594555
0.594583
0.594611
0.594611
0.594639
0.594666
0.594694
0.594722
0.594722
0.59475
0.594778
0.594806
0.594834
0.594834
0.594862
0.594891
0.594919
0.594947
0.594947
0.594975
0.595003
0.595031
0.59506
0.59506
0.595088
0.595116
0.595145
0.595173
0.595173
0.595202
0.59523
0.595259
0.595287
0.595287
0.595316
0.595344
0.595373
0.595402
0.595402
0.595431
0.59546
0.595489
0.595517
0.595517
0.595546
0.595575
0.595604
0.595634
0.595634
0.595663
0.595692
0.595721
0.59575
0.59575
0.595779
0.595808
0.595838
0.595867
0.595867
0.595896
0.595926
0.595955
0.595984
0.595984
0.596014
0.596043
0.596073
0.596102
0.596102
0.596132
0.596162
0.596191
0.596221
0.596221
0.596251
0.59628
0.59631
0.59634
0.59634
0.59637
0.596399
0.596429
0.596459
0.596459
0.596489
0.596519
0.596549
0.596579
0.596579
0.596609
0.596639
0.59667
0.5967
0.5967
0.59673
0.59676
0.59679
0.596821
0.596821
0.596851
0.596881
0.596912
0.596942
0.596942
0.596973
0.597003
0.597034
0.597064
0.597064
0.597095
0.597125
0.597156
0.597187
0.597187
0.597217
0.597248
0.597279
0.59731
0.59731
0.597341
0.597372
0.597403
0.597434
0.597434
0.597465
0.597496
0.597527
0.597558
0.597558
0.59759
0.597621
0.597652
0.597684
0.597684
0.597715
0.597746
0.597778
0.597809
0.597809
0.597841
0.597872
0.597904
0.597936
0.597936
0.597967
0.597999
0.598031
0.598062
0.598062
0.598094
0.598126
0.598158
0.59819
0.59819
0.598222
0.598254
0.598286
0.598318
0.598318
0.59835
0.598382
0.598414
0.598446
0.598446
0.598478
0.59851
0.598542
0.598575
0.598575
0.598607
0.598639
0.598672
0.598704
0.598704
0.598737
0.598769
0.598802
0.598834
0.598834
0.598867
0.598899
0.598932
0.598965
0.598965
0.598997
0.59903
0.599063
0.599096
0.599096
0.599128
0.599161
0.599194
0.599227
0.599227
0.59926
0.599293
0.599326
0.599359
0.599359
0.599392
0.599426
0.599459
0.599492
0.599492
0.599526
0.599559
0.599592
0.599626
0.599626
0.59966
0.599693
0.599727
0.59976
0.59976
0.599794
0.599828
0.599862
0.599896
0.599896
0.599929
0.599963
0.599997
0.600031
0.600031
0.600065
0.600099
0.600133
0.600167
0.600167
0.600201
0.600235
0.60027
0.600304
0.600304
0.600338
0.600372
0.600407
0.600441
0.600441
0.600475
0.60051
0.600544
0.600579
0.600579
0.600613
0.600648
0.600682
0.600717
0.600717
0.600752
0.600786
0.600821
0.600856
0.600856
0.600891
0.600925
0.60096
0.600995
0.600995
0.60103
0.601065
0.6011
0.601135
0.601135
0.60117
0.601205
0.60124
0.601276
0.601276
0.601311
0.601346
0.601381
0.601417
0.601417
0.601452
0.601487
0.601523
0.601558
0.601558
0.601594
0.60163
0.601665
0.601701
0.601701
0.601737
0.601773
0.601808
0.601844
0.601844
0.60188
0.601916
0.601952