<?xml version="1.0"?>
<VTKFile type="UnstructuredGrid" version="0.1" byte_order="LittleEndian">
<UnstructuredGrid>
<Piece NumberOfPoints="5000" NumberOfCells="4000">
<PointData Scalars="Reaction 0">
<DataArray type="Float32" Name="Reaction 0" format="ascii">
0.371269
0.371269
0.371269
0.371269
0.371269
0.371269
0.371269
0.37127
0.37127
0.37127
0.37127
0.37127
0.37127
0.371271
0.371271
0.371271
0.371272
0.371272
0.371272
0.371273
0.371273
0.371273
0.371274
0.371274
0.371275
0.371275
0.371275
0.371276
0.371277
0.371277
0.371277
0.371278
0.371279
0.37128
0.371281
0.371281
0.371281
0.371282
0.371283
0.371284
0.371284
0.371285
0.371286
0.371287
0.371288
0.371288
0.371289
0.37129
0.371291
0.371292
0.371292
0.371294
0.371295
0.371296
0.371297
0.371297
0.371299
0.3713
0.371301
0.371303
0.371303
0.371304
0.371306
0.371307
0.371309
0.371309
0.37131
0.371312
0.371313
0.371315
0.371315
0.371317
0.371318
0.37132
0.371322
0.371322
0.371324
0.371325
0.371327
0.371329
0.371329
0.371331
0.371333
0.371335
0.371337
0.371337
0.371339
0.371341
0.371343
0.371345
0.371345
0.371347
0.371349
0.371351
0.371354
0.371354
0.371356
0.371358
0.37136
0.371363
0.371363
0.371365
0.371367
0.37137
0.371372
0.371372
0.371375
0.371377
0.37138
0.371382
0.371382
0.371385
0.371388
0.37139
0.371393
0.371393
0.371396
0.371398
0.371401
0.371404
0.371404
0.371407
0.37141
0.371413
0.371415
0.371415
0.371418
0.371421
0.371424
0.371427
0.371427
0.37143
0.371434
0.371437
0.37144
0.37144
0.371443
0.371446
0.371449
0.371453
0.371453
0.371456
0.371459
0.371463
0.371466
0.371466
0.371469
0.371473
0.371476
0.37148
0.37148
0.371483
0.371487
0.371491
0.371494
0.371494
0.371498
0.371501
0.371505
0.371509
0.371509
0.371513
0.371516
0.37152
0.371524
0.371524
0.371528
0.371532
0.371536
0.37154
0.37154
0.371544
0.371548
0.371552
0.371556
0.371556
0.37156
0.371564
0.371568
0.371573
0.371573
0.371577
0.371581
0.371585
0.37159
0.37159
0.371594
0.371598
0.371603
0.371607
0.371607
0.371612
0.371616
0.371621
0.371625
0.371625
0.37163
0.371635
0.371639
0.371644
0.371644
0.371649
0.371653
0.371658
0.371663
0.371663
0.371668
0.371672
0.371677
0.371682
0.371682
0.371687
0.371692
0.371697
0.371702
0.371702
0.371707
0.371712
0.371717
0.371723
0.371723
0.371728
0.371733
0.371738
0.371743
0.371743
0.371749
0.371754
0.371759
0.371765
0.371765
0.37177
0.371776
0.371781
0.371787
0.371787
0.371792
0.371798
0.371803
0.371809
0.371809
0.371814
0.37182
0.371826
0.371831
0.371831
0.371837
0.371843
0.371849
0.371855
0.371855
0.371861
0.371866
0.371872
0.371878
0.371878
0.371884
0.37189
0.371896
0.371902
0.371902
0.371909
0.371915
0.371921
0.371927
0.371927
0.371933
0.37194
0.371946
0.371952
0.371952
0.371958
0.371965
0.371971
0.371978
0.371978
0.371984
0.371991
0.371997
0.372004
0.372004
0.37201
0.372017
0.372023
0.37203
0.37203
0.372037
0.372044
0.37205
0.372057
0.372057
0.372064
0.372071
0.372078
0.372084
0.372084
0.372091
0.372098
0.372105
0.372112
0.372112
0.372119
0.372126
0.372134
0.372141
0.372141
0.372148
0.372155
0.372162
0.37217
0.37217
0.372177
0.372184
0.372191
0.372199
0.372199
0.372206
0.372214
0.372221
0.372229
0.372229
0.372236
0.372244
0.372251
0.372259
0.372259
0.372266
0.372274
0.372282
0.372289
0.372289
0.372297
0.372305
0.372313
0.372321
0.372321
0.372328
0.372336
0.372344
0.372352
0.372352
0.37236
0.372368
0.372376
0.372384
0.372384
0.372392
0.372401
0.372409
0.372417
0.372417
0.372425
0.372433
0.372442
0.37245
0.37245
0.372458
0.372467
0.372475
0.372483
0.372483
0.372492
0.3725
0.372509
0.372517
0.372517
0.372526
0.372534
0.372543
0.372552
0.372552
0.37256
0.372569
0.372578
0.372587
0.372587
0.372595
0.372604
0.372613
0.372622
0.372622
0.372631
0.37264
0.372649
0.372658
0.372658
0.372667
0.372676
0.372685
0.372694
0.372694
0.372703
0.372712
0.372722
0.372731
0.372731
0.37274
0.372749
0.372759
0.372768
0.372768
0.372778
0.372787
0.372796
0.372806
0.372806
0.372815
0.372825
0.372834
0.372844
0.372844
0.372854
0.372863
0.372873
0.372883
0.372883
0.372892
0.372902
0.372912
0.372922
0.372922
0.372932
0.372942
0.372951
0.372961
0.372961
0.372971
0.372981
0.372991
0.373001
0.373001
0.373011
0.373022
0.373032
0.373042
0.373042
0.373052
0.373062
0.373073
0.373083
0.373083
0.373093
0.373104
0.373114
0.373124
0.373124
0.373135
0.373145
0.373156
0.373166
0.373166
0.373177
0.373187
0.373198
0.373209
0.373209
0.373219
0.37323
0.373241
0.373252
0.373252
0.373262
0.373273
0.373284
0.373295
0.373295
0.373306
0.373317
0.373328
0.373339
0.373339
0.37335
0.373361
0.373372
0.373383
0.373383
0.373394
0.373405
0.373416
0.373428
0.373428
0.373439
0.37345
0.373461
0.373473
0.373473
0.373484
0.373496
0.373507
0.373518
0.373518
0.37353
0.373541
0.373553
0.373565
0.373565
0.373576
0.373588
0.373599
0.373611
0.373611
0.373623
0.373635
0.373646
0.373658
0.373658
0.37367
0.373682
0.373694
0.373706
0.373706
0.373718
0.37373
0.373742
0.373754
0.373754
0.373766
0.373778
0.37379
0.373802
0.373802
0.373814
0.373827
0.373839
0.373851
0.373851
0.373863
0.373876
0.373888
0.373901
0.373901
0.373913
0.373925
0.373938
0.37395
0.37395
0.373963
0.373976
0.373988
0.374001
0.374001
0.374013
0.374026
0.374039
0.374052
0.374052
0.374064
0.374077
0.37409
0.374103
0.374103
0.374116
0.374129
0.374142
0.374155
0.374155
0.374168
0.374181
0.374194
0.374207
0.374207
0.37422
0.374233
0.374246
0.374259
0.374259
0.374273
0.374286
0.374299
0.374313
0.374313
0.374326
0.374339
0.374353
0.374366
0.374366
0.37438
0.374393
0.374407
0.37442
0.37442
0.374434
0.374448
0.374461
0.374475
0.374475
0.374489
0.374502
0.374516
0.37453
0.37453
0.374544
0.374558
0.374571
0.374585
0.374585
0.374599
0.374613
0.374627
0.374641
0.374641
0.374655
0.374669
0.374684
0.374698
0.374698
0.374712
0.374726
0.37474
0.374755
0.374755
0.374769
0.374783
0.374798
0.374812
0.374812
0.374826
0.374841
0.374855
0.37487
0.37487
0.374884
0.374899
0.374913
0.374928
0.374928
0.374943
0.374957
0.374972
0.374987
0.374987
0.375002
0.375016
0.375031
0.375046
0.375046
0.375061
0.375076
0.375091
0.375106
0.375106
0.375121
0.375136
0.375151
0.375166
0.375166
0.375181
0.375196
0.375211
0.375226
0.375226
0.375242
0.375257
0.375272
0.375288
0.375288
0.375303
0.375318
0.375334
0.375349
0.375349
0.375365
0.37538
0.375396
0.375411
0.375411
0.375427
0.375442
0.375458
0.375474
0.375474
0.375489
0.375505
0.375521
0.375537
0.375537
0.375552
0.375568
0.375584
0.3756
0.3756
0.375616
0.375632
0.375648
0.375664
0.375664
0.37568
0.375696
0.375712
0.375728
0.375728
0.375744
0.375761
0.375777
0.375793
0.375793
0.375809
0.375826
0.375842
0.375858
0.375858
0.375875
0.375891
0.375908
0.375924
0.375924
0.375941
0.375957
0.375974
0.37599
0.37599
0.376007
0.376024
0.37604
0.376057
0.376057
0.376074
0.376091
0.376107
0.376124
0.376124
0.376141
0.376158
0.376175
0.376192
0.376192
0.376209
0.376226
0.376243
0.37626
0.37626
0.376277
0.376294
0.376311
0.376329
0.376329
0.376346
0.376363
0.37638
0.376398
0.376398
0.376415
0.376432
0.37645
0.376467
0.376467
0.376484
0.376502
0.376519
0.376537
0.376537
0.376555
0.376572
0.37659
0.376607
0.376607
0.376625
0.376643
0.376661
0.376678
0.376678
0.376696
0.376714
0.376732
0.37675
0.37675
0.376768
0.376786
0.376804
0.376822
0.376822
0.37684
0.376858
0.376876
0.376894
0.376894
0.376912
0.37693
0.376948
0.376967
0.376967
0.376985
0.377003
0.377021
0.37704
0.37704
0.377058
0.377077
0.377095
0.377114
0.377114
0.377132
0.377151
0.377169
0.377188
0.377188
0.377206
0.377225
0.377244
0.377262
0.377262
0.377281
0.3773
0.377319
0.377337
0.377337
0.377356
0.377375
0.377394
0.377413
0.377413
0.377432
0.377451
0.37747
0.377489
0.377489
0.377508
0.377527
0.377546
0.377565
0.377565
0.377585
0.377604
0.377623
0.377642
0.377642
0.377662
0.377681
0.3777
0.37772
0.37772
0.377739
0.377759
0.377778
0.377798
0.377798
0.377817
0.377837
0.377857
0.377876
0.377876
0.377896
0.377915
0.377935
0.377955
0.377955
0.377975
0.377995
0.378014
0.378034
0.378034
0.378054
0.378074
0.378094
0.378114
0.378114
0.378134
0.378154
0.378174
0.378194
0.378194
0.378214
0.378235
0.378255
0.378275
0.378275
0.378295
0.378315
0.378336
0.378356
0.378356
0.378376
0.378397
0.378417
0.378438
0.378438
0.378458
0.378479
0.378499
0.37852
0.37852
0.37854
0.378561
0.378582
0.378602
0.378602
0.378623
0.378644
0.378665
0.378685
0.378685
0.378706
0.378727
0.378748
0.378769
0.378769
0.37879
0.378811
0.378832
0.378853
0.378853
0.378874
0.378895
0.378916
0.378937
0.378937
0.378958
0.37898
0.379001
0.379022
0.379022
0.379043
0.379065
0.379086
0.379108
0.379108
0.379129
0.37915
0.379172
0.379193
0.379193
0.379215
0.379236
0.379258
0.37928
0.37928
0.379301
0.379323
0.379345
0.379366
0.379366
0.379388
0.37941
0.379432
0.379454
0.379454
0.379475
0.379497
0.379519
0.379541
0.379541
0.379563
0.379585
0.379607
0.379629
0.379629
0.379652
0.379674
0.379696
0.379718
0.379718
0.37974
0.379763
0.379785
0.379807
0.379807
0.379829
0.379852
0.379874
0.379897
0.379897
0.379919
0.379942
0.379964
0.379987
0.379987
0.380009
0.380032
0.380055
0.380077
0.380077
0.3801
0.380123
0.380145
0.380168
0.380168
0.380191
0.380214
0.380237
0.38026
0.38026
0.380282
0.380305
0.380328
0.380351
0.380351
0.380374
0.380398
0.380421
0.380444
0.380444
0.380467
0.38049
0.380513
0.380537
0.380537
0.38056
0.380583
0.380607
0.38063
0.38063
0.380653
0.380677
0.3807
0.380724
0.380724
0.380747
0.380771
0.380794
0.380818
0.380818
0.380841
0.380865
0.380889
0.380912
0.380912
0.380936
0.38096
0.380984
0.381008
0.381008
0.381031
0.381055
0.381079
0.381103
0.381103
0.381127
0.381151
0.381175
0.381199
0.381199
0.381223
0.381248
0.381272
0.381296
0.381296
0.38132
0.381344
0.381369
0.381393
0.381393
0.381417
0.381442
0.381466
0.38149
0.38149
0.381515
0.381539
0.381564
0.381588
0.381588
0.381613
0.381637
0.381662
0.381687
0.381687
0.381711
0.381736
0.381761
0.381785
0.381785
0.38181
0.381835
0.38186
0.381885
0.381885
0.38191
0.381935
0.38196
0.381985
0.381985
0.38201
0.382035
0.38206
0.382085
0.382085
0.38211
0.382135
0.38216
0.382186
0.382186
0.382211
0.382236
0.382261
0.382287
0.382287
0.382312
0.382338
0.382363
0.382388
0.382388
0.382414
0.382439
0.382465
0.382491
0.382491
0.382516
0.382542
0.382567
0.382593
0.382593
0.382619
0.382645
0.38267
0.382696
0.382696
0.382722
0.382748
0.382774
0.3828
0.3828
0.382826
0.382852
0.382878
0.382904
0.382904
0.38293
0.382956
0.382982
0.383008
0.383008
0.383034
0.383061
0.383087
0.383113
0.383113
0.383139
0.383166
0.383192
0.383218
0.383218
0.383245
0.383271
0.383298
0.383324
0.383324
0.383351
0.383377
0.383404
0.383431
0.383431
0.383457
0.383484
0.383511
0.383537
0.383537
0.383564
0.383591
0.383618
0.383645
0.383645
0.383671
0.383698
0.383725
0.383752
0.383752
0.383779
0.383806
0.383833
0.38386
0.38386
0.383888
0.383915
0.383942
0.383969
0.383969
0.383996
0.384024
0.384051
0.384078
0.384078
0.384105
0.384133
0.38416
0.384188
0.384188
0.384215
0.384243
0.38427
0.384298
0.384298
0.384325
0.384353
0.384381
0.384408
0.384408
0.384436
0.384464
0.384491
0.384519
0.384519
0.384547
0.384575
0.384603
0.384631
0.384631
0.384659
0.384686
0.384714
0.384742
0.384742
0.38477
0.384799
0.384827
0.384855
0.384855
0.384883
0.384911
0.384939
0.384968
0.384968
0.384996
0.385024
0.385053
0.385081
0.385081
0.385109
0.385138
0.385166
0.385195
0.385195
0.385223
0.385252
0.38528
0.385309
0.385309
0.385337
0.385366
0.385395
0.385423
0.385423
0.385452
0.385481
0.38551
0.385539
0.385539
0.385567
0.385596
0.385625
0.385654
0.385654
0.385683
0.385712
0.385741
0.38577
0.38577
0.385799
0.385828
0.385858
0.385887
0.385887
0.385916
0.385945
0.385975
0.386004
0.386004
0.386033
0.386062
0.386092
0.386121
0.386121
0.386151
0.38618
0.38621
0.386239
0.386239
0.386269
0.386298
0.386328
0.386358
0.386358
0.386387
0.386417
0.386447
0.386476
0.386476
0.386506
0.386536
0.386566
0.386596
0.386596
0.386626
0.386656
0.386685
0.386715
0.386715
0.386746
0.386776
0.386806
0.386836
0.386836
0.386866
0.386896
0.386926
0.386956
0.386956
0.386987
0.387017
0.387047
0.387078
0.387078
0.387108
0.387138
0.387169
0.387199
0.387199
0.38723
0.38726
0.387291
0.387321
0.387321
0.387352
0.387383
0.387413
0.387444
0.387444
0.387475
0.387505
0.387536
0.387567
0.387567
0.387598
0.387629
0.387659
0.38769
0.38769
0.387721
0.387752
0.387783
0.387814
0.387814
0.387845
0.387876
0.387908
0.387939
0.387939
0.38797
0.388001
0.388032
0.388064
0.388064
0.388095
0.388126
0.388158
0.388189
0.388189
0.38822
0.388252
0.388283
0.388315
0.388315
0.388346
0.388378
0.388409
0.388441
0.388441
0.388473
0.388504
0.388536
0.388568
0.388568
0.3886
0.388631
0.388663
0.388695
0.388695
0.388727
0.388759
0.388791
0.388823
0.388823
0.388855
0.388887
0.388919
0.388951
0.388951
0.388983
0.389015
0.389047
0.389079
0.389079
0.389112
0.389144
0.389176
0.389208
0.389208
0.389241
0.389273
0.389305
0.389338
0.389338
0.38937
0.389403
0.389435
0.389468
0.389468
0.3895
0.389533
0.389566
0.389598
0.389598
0.389631
0.389664
0.389696
0.389729
0.389729
0.389762
0.389795
0.389828
0.389861
0.389861
0.389894
0.389926
0.389959
0.389992
0.389992
0.390025
0.390059
0.390092
0.390125
0.390125
0.390158
0.390191
0.390224
0.390258
0.390258
0.390291
0.390324
0.390357
0.390391
0.390391
0.390424
0.390458
0.390491
0.390524
0.390524
0.390558
0.390591
0.390625
0.390659
0.390659
0.390692
0.390726
0.390759
0.390793
0.390793
0.390827
0.390861
0.390894
0.390928
0.390928
0.390962
0.390996
0.39103
0.391064
0.391064
0.391098
0.391132
0.391166
0.3912
0.3912
0.391234
0.391268
0.391302
0.391336
0.391336
0.39137
0.391405
0.391439
0.391473
0.391473
0.391507
0.391542
0.391576
0.391611
0.391611
0.391645
0.391679
0.391714
0.391748
0.391748
0.391783
0.391818
0.391852
0.391887
0.391887
0.391921
0.391956
0.391991
0.392026
0.392026
0.39206
0.392095
0.39213
0.392165
0.392165
0.3922
0.392235
0.39227
0.392304
0.392304
0.392339
0.392375
0.39241
0.392445
0.392445
0.39248
0.392515
0.39255
0.392585
0.392585
0.392621
0.392656
0.392691
0.392726
0.392726
0.392762
0.392797
0.392833
0.392868
0.392868
0.392903
0.392939
0.392974
0.39301
0.39301
0.393046
0.393081
0.393117
0.393152
0.393152
0.393188
0.393224
0.39326
0.393295
0.393295
0.393331
0.393367
0.393403
0.393439
0.393439
0.393475
0.393511
0.393547
0.393583
0.393583
0.393619
0.393655
0.393691
0.393727
0.393727
0.393763
0.393799
0.393836
0.393872
0.393872
0.393908
0.393944
0.393981
0.394017
0.394017
0.394053
0.39409
0.394126
0.394163
0.394163
0.394199
0.394236
0.394272
0.394309
0.394309
0.394346
0.394382
0.394419
0.394456
0.394456
0.394492
0.394529
0.394566
0.394603
0.394603
0.39464
0.394676
0.394713
0.39475
0.39475
0.394787
0.394824
0.394861
0.394898
0.394898
0.394935
0.394973
0.39501
0.395047
0.395047
0.395084
0.395121
0.395159
0.395196
0.395196
0.395233
0.39527
0.395308
0.395345
0.395345
0.395383
0.39542
0.395458
0.395495
0.395495
0.395533
0.39557
0.395608
0.395645
0.395645
0.395683
0.395721
0.395759
0.395796
0.395796
0.395834
0.395872
0.39591
0.395948
0.395948
0.395985
0.396023
0.396061
0.396099
0.396099
0.396137
0.396175
0.396213
0.396251
0.396251
0.39629
0.396328
0.396366
0.396404
0.396404
0.396442
0.396481
0.396519
0.396557
0.396557
0.396596
0.396634
0.396672
0.396711
0.396711
0.396749
0.396788
0.396826
0.396865
0.396865
0.396903
0.396942
0.396981
0.397019
0.397019
0.397058
0.397097
0.397136
0.397174
0.397174
0.397213
0.397252
0.397291
0.39733
0.39733
0.397369
0.397408
0.397447
0.397486
0.397486
0.397525
0.397564
0.397603
0.397642
0.397642
0.397681
0.39772
0.39776
0.397799
0.397799
0.397838
0.397877
0.397917
0.397956
0.397956
0.397996
0.398035
0.398074
0.398114
0.398114
0.398153
0.398193
0.398232
0.398272
0.398272
0.398312
0.398351
0.398391
0.398431
0.398431
0.39847
0.39851
0.39855
0.39859
0.39859
0.39863
0.39867
0.39871
0.398749
0.398749
0.398789
0.398829
0.398869
0.39891
0.39891
0.39895
0.39899
0.39903
0.39907
0.39907
0.39911
0.39915
0.399191
0.399231
0.399231
0.399271
0.399312
0.399352
0.399392
0.399392
0.399433
0.399473
0.399514
0.399554
0.399554
0.399595
0.399635
0.399676
0.399717
0.399717
0.399757
0.399798
0.399839
0.39988
0.39988
0.39992
0.399961
0.400002
0.400043
0.400043
0.400084
0.400125
0.400166
0.400207
0.400207
0.400248
0.400289
0.40033
0.400371
0.400371
0.400412
0.400453
0.400494
0.400535
0.400535
0.400577
0.400618
0.400659
0.400701
0.400701
0.400742
0.400783
0.400825
0.400866
0.400866
0.400908
0.400949
0.400991
0.401032
0.401032
0.401074
0.401115
0.401157
0.401199
0.401199
0.40124
0.401282
0.401324
0.401366
0.401366
0.401408
0.401449
0.401491
0.401533
0.401533
0.401575
0.401617
0.401659
0.401701
0.401701
0.401743
0.401785
0.401827
0.401869
0.401869
0.401912
0.401954
0.401996
0.402038
0.402038
0.402081
0.402123
0.402165
0.402208
0.402208
0.40225
0.402292
0.402335
0.402377
0.402377
0.40242
0.402462
0.402505
0.402548
0.402548
0.40259
0.402633
0.402675
0.402718
0.402718
0.402761
0.402804
0.402846
0.402889
0.402889
0.402932
0.402975
0.403018
0.403061
0.403061
0.403104
0.403147
0.40319
0.403233
0.403233
0.403276
0.403319
0.403362
0.403405
0.403405
0.403449
0.403492
0.403535
0.403578
0.403578
0.403622
0.403665
0.403708
0.403752
0.403752
0.403795
0.403839
0.403882
0.403926
0.403926
0.403969
0.404013
0.404057
0.4041
0.4041
0.404144
0.404188
0.404231
0.404275
0.404275
0.404319
0.404363
0.404406
0.40445
0.40445
0.404494
0.404538
0.404582
0.404626
0.404626
0.40467
0.404714
0.404758
0.404802
0.404802
0.404846
0.404891
0.404935
0.404979
0.404979
0.405023
0.405067
0.405112
0.405156
0.405156
0.4052
0.405245
0.405289
0.405334
0.405334
0.405378
0.405423
0.405467
0.405512
0.405512
0.405556
0.405601
0.405646
0.40569
0.40569
0.405735
0.40578
0.405824
0.405869
0.405869
0.405914
0.405959
0.406004
0.406049
0.406049
0.406094
0.406138
0.406183
0.406228
0.406228
0.406274
0.406319
0.406364
0.406409
0.406409
0.406454
0.406499
0.406544
0.40659
0.40659
0.406635
0.40668
0.406726
0.406771
0.406771
0.406816
0.406862
0.406907
0.406953
0.406953
0.406998
0.407044
0.407089
0.407135
0.407135
0.407181
0.407226
0.407272
0.407318
0.407318
0.407363
0.407409
0.407455
0.407501
0.407501
0.407547
0.407592
0.407638
0.407684
0.407684
0.40773
0.407776
0.407822
0.407868
0.407868
0.407914
0.407961
0.408007
0.408053
0.408053
0.408099
0.408145
0.408192
0.408238
0.408238
0.408284
0.40833
0.408377
0.408423
0.408423
0.40847
0.408516
0.408563
0.408609
0.408609
0.408656
0.408702
0.408749
0.408795
0.408795
0.408842
0.408889
0.408936
0.408982
0.408982
0.409029
0.409076
0.409123
0.40917
0.40917
0.409216
0.409263
0.40931
0.409357
0.409357
0.409404
0.409451
0.409498
0.409545
0.409545
0.409593
0.40964
0.409687
0.409734
0.409734
0.409781
0.409829
0.409876
0.409923
0.409923
0.409971
0.410018
0.410065
0.410113
0.410113
0.41016
0.410208
0.410255
0.410303
0.410303
0.41035
0.410398
0.410446
0.410493
0.410493
0.410541
0.410589
0.410637
0.410684
0.410684
0.410732
0.41078
0.410828
0.410876
0.410876
0.410924
0.410972
0.41102
0.411068
0.411068
0.411116
0.411164
0.411212
0.41126
0.41126
0.411308
0.411356
0.411405
0.411453
0.411453
0.411501
0.411549
0.411598
0.411646
0.411646
0.411694
0.411743
0.411791
0.41184
0.41184
0.411888
0.411937
0.411985
0.412034
0.412034
0.412083
0.412131
0.41218
0.412229
0.412229
0.412277
0.412326
0.412375
0.412424
0.412424
0.412473
0.412521
0.41257
0.412619
0.412619
0.412668
0.412717
0.412766
0.412815
0.412815
0.412864
0.412914
0.412963
0.413012
0.413012
0.413061
0.41311
0.41316
0.413209
0.413209
0.413258
0.413307
0.413357
0.413406
0.413406
0.413456
0.413505
0.413555
0.413604
0.413604
0.413654
0.413703
0.413753
0.413802
0.413802
0.413852
0.413902
0.413951
0.414001
0.414001
0.414051
0.414101
0.414151
0.4142
0.4142
0.41425
0.4143
0.41435
0.4144
0.4144
0.41445
0.4145
0.41455
0.4146
0.4146
0.41465
0.414701
0.414751
0.414801
0.414801
0.414851
0.414902
0.414952
0.415002
0.415002
0.415052
0.415103
0.415153
0.415204
0.415204
0.415254
0.415305
0.415355
0.415406
0.415406
0.415456
0.415507
0.415558
0.415608
0.415608
0.415659
0.41571
0.41576
0.415811
0.415811
0.415862
0.415913
0.415964
0.416015
0.416015
0.416065
0.416116
0.416167
0.416218
0.416218
0.416269
0.416321
0.416372
0.416423
0.416423
0.416474
0.416525
0.416576
0.416628
0.416628
0.416679
0.41673
0.416781
0.416833
0.416833
0.416884
0.416936
0.416987
0.417038
0.417038
0.41709
0.417141
0.417193
0.417245
0.417245
0.417296
0.417348
0.4174
0.417451
0.417451
0.417503
0.417555
0.417607
0.417658
0.417658
0.41771
0.417762
0.417814
0.417866
0.417866
0.417918
0.41797
0.418022
0.418074
0.418074
0.418126
0.418178
0.41823
0.418282
0.418282
0.418335
0.418387
0.418439
0.418491
0.418491
0.418544
0.418596
0.418648
0.418701
0.418701
0.418753
0.418806
0.418858
0.418911
0.418911
0.418963
0.419016
0.419068
0.419121
0.419121
0.419174
0.419226
0.419279
0.419332
0.419332
0.419384
0.419437
0.41949
0.419543
0.419543
0.419596
0.419649
0.419702
0.419755
0.419755
0.419808
0.419861
0.419914
0.419967
0.419967
0.42002
0.420073
0.420126
0.420179
0.420179
0.420233
0.420286
0.420339
0.420393
0.420393
0.420446
0.420499
0.420553
0.420606
0.420606
0.42066
0.420713
0.420767
0.42082
0.42082
0.420874
0.420927
0.420981
0.421035
0.421035
0.421088
0.421142
0.421196
0.421249
0.421249
0.421303
0.421357
0.421411
0.421465
0.421465
0.421519
0.421573
0.421627
0.421681
0.421681
0.421735
0.421789
0.421843
0.421897
0.421897
0.421951
0.422005
0.42206
0.422114
0.422114
0.422168
0.422222
0.422277
0.422331
0.422331
0.422385
0.42244
0.422494
0.422549
0.422549
0.422603
0.422658
0.422712
0.422767
0.422767
0.422821
0.422876
0.422931
0.422985
0.422985
0.42304
0.423095
0.42315
0.423205
0.423205
0.423259
0.423314
0.423369
0.423424
0.423424
0.423479
0.423534
0.423589
0.423644
0.423644
0.423699
0.423754
0.423809
0.423865
0.423865
0.42392
0.423975
0.42403
0.424085
0.424085
0.424141
0.424196
0.424251
0.424307
0.424307
0.424362
0.424418
0.424473
0.424529
0.424529
0.424584
0.42464
0.424695
0.424751
0.424751
0.424807
0.424862
0.424918
0.424974
0.424974
0.42503
0.425085
0.425141
0.425197
0.425197
0.425253
0.425309
0.425365
0.425421
0.425421
0.425477
0.425533
0.425589
0.425645
0.425645
0.425701
0.425757
0.425813
0.425869
0.425869
0.425926
0.425982
0.426038
0.426095
0.426095
0.426151
0.426207
0.426264
0.42632
0.42632
0.426377
0.426433
0.42649
0.426546
0.426546
0.426603
0.426659
0.426716
0.426773
0.426773
0.426829
0.426886
0.426943
0.426999
0.426999
0.427056
0.427113
0.42717
0.427227
0.427227
0.427284
0.427341
0.427398
0.427455
0.427455
0.427512
0.427569
0.427626
0.427683
0.427683
0.42774
0.427797
0.427854
0.427912
0.427912
0.427969
0.428026
0.428084
0.428141
0.428141
0.428198
0.428256
0.428313
0.428371
0.428371
0.428428
0.428486
0.428543
0.428601
0.428601
0.428658
0.428716
0.428774
0.428831
0.428831
0.428889
0.428947
0.429005
0.429062
0.429062
0.42912
0.429178
0.429236
0.429294
0.429294
0.429352
0.42941
0.429468
0.429526
0.429526
0.429584
0.429642
0.4297
0.429758
0.429758
0.429817
0.429875
0.429933
0.429991
0.429991
0.43005
0.430108
0.430166
0.430225
0.430225
0.430283
0.430342
0.4304
0.430459
0.430459
0.430517
0.430576
0.430634
0.430693
0.430693
0.430752
0.43081
0.430869
0.430928
0.430928
0.430986
0.431045
0.431104
0.431163
0.431163
0.431222
0.431281
0.43134
0.431399
0.431399
0.431458
0.431517
0.431576
0.431635
0.431635
0.431694
0.431753
0.431812
0.431871
0.431871
0.431931
0.43199
0.432049
0.432108
0.432108
0.432168
0.432227
0.432287
0.432346
0.432346
0.432405
0.432465
0.432524
0.432584
0.432584
0.432644
0.432703
0.432763
0.432822
0.432822
0.432882
0.432942
0.433002
0.433061
0.433061
0.433121
0.433181
0.433241
0.433301
0.433301
0.433361
0.433421
0.433481
0.433541
0.433541
0.433601
0.433661
0.433721
0.433781
0.433781
0.433841
0.433901
0.433961
0.434022
0.434022
0.434082
0.434142
0.434203
0.434263
0.434263
0.434323
0.434384
0.434444
0.434505
0.434505
0.434565
0.434626
0.434686
0.434747
0.434747
0.434807
0.434868
0.434929
0.434989
0.434989
0.43505
0.435111
0.435172
0.435233
0.435233
0.435293
0.435354
0.435415
0.435476
0.435476
0.435537
0.435598
0.435659
0.43572
0.43572
0.435781
0.435842
0.435903
0.435965
0.435965
0.436026
0.436087
0.436148
0.436209
0.436209
0.436271
0.436332
0.436394
0.436455
0.436455
0.436516
0.436578
0.436639
0.436701
0.436701
0.436762
0.436824
0.436885
0.436947
0.436947
0.437009
0.43707
0.437132
0.437194
0.437194
0.437256
0.437317
0.437379
0.437441
0.437441
0.437503
0.437565
0.437627
0.437689
0.437689
0.437751
0.437813
0.437875
0.437937
0.437937
0.437999
0.438061
0.438123
0.438186
0.438186
0.438248
0.43831
0.438372
0.438435
0.438435
0.438497
0.43856
0.438622
0.438684
0.438684
0.438747
0.438809
0.438872
0.438934
0.438934
0.438997
0.43906
0.439122
0.439185
0.439185
0.439248
0.43931
0.439373
0.439436
0.439436
0.439499
0.439561
0.439624
0.439687
0.439687
0.43975
0.439813
0.439876
0.439939
0.439939
0.440002
0.440065
0.440128
0.440191
0.440191
0.440255
0.440318
0.440381
0.440444
0.440444
0.440508
0.440571
0.440634
0.440698
0.440698
0.440761
0.440824
0.440888
0.440951
0.440951
0.441015
0.441078
0.441142
0.441206
0.441206
0.441269
0.441333
0.441396
0.44146
0.44146
0.441524
0.441588
0.441651
0.441715
0.441715
0.441779
0.441843
0.441907
0.441971
0.441971
0.442035
0.442099
0.442163
0.442227
0.442227
0.442291
0.442355
0.442419
0.442483
0.442483
0.442548
0.442612
0.442676
0.44274
0.44274
0.442805
0.442869
0.442934
0.442998
0.442998
0.443062
0.443127
0.443191
0.443256
0.443256
0.44332
0.443385
0.44345
0.443514
0.443514
0.443579
0.443644
0.443708
0.443773
0.443773
0.443838
0.443903
0.443968
0.444032
0.444032
0.444097
0.444162
0.444227
0.444292
0.444292
0.444357
0.444422
0.444487
0.444552
0.444552
0.444618
0.444683
0.444748
0.444813
0.444813
0.444878
0.444944
0.445009
0.445074
0.445074
0.44514
0.445205
0.44527
0.445336
0.445336
0.445401
0.445467
0.445532
0.445598
0.445598
0.445664
0.445729
0.445795
0.445861
0.445861
0.445926
0.445992
0.446058
0.446124
0.446124
0.446189
0.446255
0.446321
0.446387
0.446387
0.446453
0.446519
0.446585
0.446651
0.446651
0.446717
0.446783
0.446849
0.446915
0.446915
0.446982
0.447048
0.447114
0.44718
0.44718
0.447247
0.447313
0.447379
0.447446
0.447446
0.447512
0.447579
0.447645
0.447711
0.447711
0.447778
0.447845
0.447911
0.447978
0.447978
0.448044
0.448111
0.448178
0.448245
0.448245
0.448311
0.448378
0.448445
0.448512
0.448512
0.448579
0.448646
0.448712
0.448779
0.448779
0.448846
0.448913
0.44898
0.449048
0.449048
0.449115
0.449182
0.449249
0.449316
0.449316
0.449383
0.449451
0.449518
0.449585
0.449585
0.449653
0.44972
0.449787
0.449855
0.449855
0.449922
0.44999
0.450057
0.450125
0.450125
0.450192
0.45026
0.450328
0.450395
0.450395
0.450463
0.450531
0.450598
0.450666
0.450666
0.450734
0.450802
0.45087
0.450938
0.450938
0.451006
0.451074
0.451141
0.45121
0.45121
0.451278
0.451346
0.451414
0.451482
0.451482
0.45155
0.451618
0.451686
0.451755
0.451755
0.451823
0.451891
0.45196
0.452028
0.452028
0.452096
0.452165
0.452233
0.452302
0.452302
0.45237
0.452439
0.452507
0.452576
0.452576
0.452644
0.452713
0.452782
0.452851
0.452851
0.452919
0.452988
0.453057
0.453126
0.453126
0.453195
0.453263
0.453332
0.453401
0.453401
0.45347
0.453539
0.453608
0.453677
0.453677
0.453746
0.453816
0.453885
0.453954
0.453954
0.454023
0.454092
0.454162
0.454231
0.454231
0.4543
0.45437
0.454439
0.454508
0.454508
0.454578
0.454647
0.454717
0.454786
0.454786
0.454856
0.454925
0.454995
0.455065
0.455065
0.455134
0.455204
0.455274
0.455344
0.455344
0.455413
0.455483
0.455553
0.455623
0.455623
0.455693
0.455763
0.455833
0.455903
0.455903
0.455973
0.456043
0.456113
0.456183
0.456183
0.456253
0.456323
0.456394
0.456464
0.456464
0.456534
0.456604
0.456675
0.456745
0.456745
0.456815
0.456886
0.456956
0.457027
0.457027
0.457097
0.457168
0.457238
0.457309
0.457309
0.45738
0.45745
0.457521
0.457592
0.457592
0.457662
0.457733
0.457804
0.457875
0.457875
0.457945
0.458016
0.458087
0.458158
0.458158
0.458229
0.4583
0.458371
0.458442
0.458442
0.458513
0.458584
0.458656
0.458727
0.458727
0.458798
0.458869
0.45894
0.459012
0.459012
0.459083
0.459154
0.459226
0.459297
0.459297
0.459369
0.45944
0.459512
0.459583
0.459583
0.459655
0.459726
0.459798
0.459869
0.459869
0.459941
0.460013
0.460085
0.460156
0.460156
0.460228
0.4603
0.460372
0.460444
0.460444
0.460516
0.460587
0.460659
0.460731
0.460731
0.460803
0.460875
0.460948
0.46102
0.46102
0.461092
0.461164
0.461236
0.461308
0.461308
0.461381
0.461453
0.461525
0.461598
0.461598
0.46167
0.461742
0.461815
0.461887
0.461887
0.46196
0.462032
0.462105
0.462177
0.462177
0.46225
0.462323
0.462395
0.462468
0.462468
0.462541
0.462613
0.462686
0.462759
0.462759
0.462832
0.462905
0.462978
0.463051
0.463051
0.463124
0.463197
0.46327
0.463343
0.463343
0.463416
0.463489
0.463562
0.463635
0.463635
0.463708
0.463782
0.463855
0.463928
0.463928
0.464001
0.464075
0.464148
0.464222
0.464222
0.464295
0.464368
0.464442
0.464515
0.464515
0.464589
0.464663
0.464736
0.46481
0.46481
0.464883
0.464957
0.465031
0.465105
0.465105
0.465178
0.465252
0.465326
0.4654
0.4654
0.465474
0.465548
0.465622
0.465696
0.465696
0.46577
0.465844
0.465918
0.465992
0.465992
0.466066
0.46614
0.466215
0.466289
0.466289
0.466363
0.466437
0.466512
0.466586
0.466586
0.46666
0.466735
0.466809
0.466884
0.466884
0.466958
0.467033
0.467107
0.467182
0.467182
0.467256
0.467331
0.467406
0.46748
0.46748
0.467555
0.46763
0.467705
0.46778
0.46778
0.467854
0.467929
0.468004
0.468079
0.468079
0.468154
0.468229
0.468304
0.468379
0.468379
0.468454
0.468529
0.468605
0.46868
0.46868
0.468755
0.46883
0.468905
0.468981
0.468981
0.469056
0.469131
0.469207
0.469282
0.469282
0.469358
0.469433
0.469509
0.469584
0.469584
0.46966
0.469735
0.469811
0.469886
0.469886
0.469962
0.470038
0.470114
0.470189
0.470189
0.470265
0.470341
0.470417
0.470493
0.470493
0.470569
0.470645
0.470721
0.470797
0.470797
0.470873
0.470949
0.471025
0.471101
0.471101
0.471177
0.471253
0.471329
0.471406
0.471406
0.471482
0.471558
0.471635
0.471711
0.471711
0.471787
0.471864
0.47194
0.472017
0.472017
0.472093
0.47217
0.472246
0.472323
0.472323
0.472399
0.472476
0.472553
0.47263
0.47263
0.472706
0.472783
0.47286
0.472937
0.472937
0.473014
0.47309
0.473167
0.473244
0.473244
0.473321
0.473398
0.473475
0.473552
0.473552
0.47363
0.473707
0.473784
0.473861
0.473861
0.473938
0.474015
0.474093
0.47417
0.47417
0.474247
0.474325
0.474402
0.47448
0.47448
0.474557
0.474635
0.474712
0.47479
0.47479
0.474867
0.474945
0.475022
0.4751
0.4751
0.475178
0.475256
0.475333
0.475411
0.475411
0.475489