<?xml version="1.0"?>
<VTKFile type="UnstructuredGrid" version="0.1" byte_order="LittleEndian">
<UnstructuredGrid>
<Piece NumberOfPoints="5000" NumberOfCells="4000">
<PointData Scalars="Reaction 0">
<DataArray type="Float32" Name="Reaction 0" format="ascii">
0.375014
0.375014
0.375014
0.375014
0.375014
0.375014
0.375014
0.375014
0.375014
0.375015
0.375015
0.375015
0.375015
0.375015
0.375016
0.375016
0.375016
0.375016
0.375017
0.375017
0.375017
0.375018
0.375018
0.375019
0.375019
0.375019
0.37502
0.375021
0.375021
0.375022
0.375022
0.375023
0.375023
0.375024
0.375025
0.375025
0.375026
0.375027
0.375028
0.375029
0.375029
0.37503
0.375031
0.375032
0.375033
0.375033
0.375034
0.375035
0.375036
0.375037
0.375037
0.375038
0.375039
0.375041
0.375042
0.375042
0.375043
0.375045
0.375046
0.375047
0.375047
0.375049
0.37505
0.375052
0.375053
0.375053
0.375055
0.375056
0.375058
0.375059
0.375059
0.375061
0.375063
0.375064
0.375066
0.375066
0.375068
0.37507
0.375072
0.375073
0.375073
0.375075
0.375077
0.375079
0.375081
0.375081
0.375083
0.375085
0.375087
0.375089
0.375089
0.375091
0.375094
0.375096
0.375098
0.375098
0.3751
0.375102
0.375105
0.375107
0.375107
0.375109
0.375112
0.375114
0.375117
0.375117
0.375119
0.375122
0.375124
0.375127
0.375127
0.375129
0.375132
0.375135
0.375137
0.375137
0.37514
0.375143
0.375145
0.375148
0.375148
0.375151
0.375154
0.375157
0.37516
0.37516
0.375163
0.375166
0.375169
0.375172
0.375172
0.375175
0.375178
0.375181
0.375184
0.375184
0.375187
0.37519
0.375194
0.375197
0.375197
0.3752
0.375203
0.375207
0.37521
0.37521
0.375214
0.375217
0.37522
0.375224
0.375224
0.375227
0.375231
0.375235
0.375238
0.375238
0.375242
0.375246
0.375249
0.375253
0.375253
0.375257
0.37526
0.375264
0.375268
0.375268
0.375272
0.375276
0.37528
0.375284
0.375284
0.375288
0.375292
0.375296
0.3753
0.3753
0.375304
0.375308
0.375312
0.375317
0.375317
0.375321
0.375325
0.375329
0.375334
0.375334
0.375338
0.375342
0.375347
0.375351
0.375351
0.375356
0.37536
0.375365
0.375369
0.375369
0.375374
0.375378
0.375383
0.375388
0.375388
0.375392
0.375397
0.375402
0.375406
0.375406
0.375411
0.375416
0.375421
0.375426
0.375426
0.375431
0.375436
0.375441
0.375446
0.375446
0.375451
0.375456
0.375461
0.375466
0.375466
0.375471
0.375476
0.375482
0.375487
0.375487
0.375492
0.375497
0.375503
0.375508
0.375508
0.375514
0.375519
0.375524
0.37553
0.37553
0.375535
0.375541
0.375546
0.375552
0.375552
0.375558
0.375563
0.375569
0.375575
0.375575
0.37558
0.375586
0.375592
0.375598
0.375598
0.375604
0.37561
0.375616
0.375621
0.375621
0.375627
0.375633
0.375639
0.375646
0.375646
0.375652
0.375658
0.375664
0.37567
0.37567
0.375676
0.375683
0.375689
0.375695
0.375695
0.375701
0.375708
0.375714
0.375721
0.375721
0.375727
0.375733
0.37574
0.375746
0.375746
0.375753
0.37576
0.375766
0.375773
0.375773
0.37578
0.375786
0.375793
0.3758
0.3758
0.375807
0.375813
0.37582
0.375827
0.375827
0.375834
0.375841
0.375848
0.375855
0.375855
0.375862
0.375869
0.375876
0.375883
0.375883
0.37589
0.375898
0.375905
0.375912
0.375912
0.375919
0.375926
0.375934
0.375941
0.375941
0.375949
0.375956
0.375963
0.375971
0.375971
0.375978
0.375986
0.375993
0.376001
0.376001
0.376009
0.376016
0.376024
0.376032
0.376032
0.376039
0.376047
0.376055
0.376063
0.376063
0.37607
0.376078
0.376086
0.376094
0.376094
0.376102
0.37611
0.376118
0.376126
0.376126
0.376134
0.376142
0.376151
0.376159
0.376159
0.376167
0.376175
0.376183
0.376192
0.376192
0.3762
0.376208
0.376217
0.376225
0.376225
0.376233
0.376242
0.37625
0.376259
0.376259
0.376267
0.376276
0.376285
0.376293
0.376293
0.376302
0.376311
0.376319
0.376328
0.376328
0.376337
0.376346
0.376355
0.376363
0.376363
0.376372
0.376381
0.37639
0.376399
0.376399
0.376408
0.376417
0.376426
0.376435
0.376435
0.376444
0.376454
0.376463
0.376472
0.376472
0.376481
0.376491
0.3765
0.376509
0.376509
0.376519
0.376528
0.376537
0.376547
0.376547
0.376556
0.376566
0.376575
0.376585
0.376585
0.376594
0.376604
0.376614
0.376623
0.376623
0.376633
0.376643
0.376653
0.376662
0.376662
0.376672
0.376682
0.376692
0.376702
0.376702
0.376712
0.376722
0.376732
0.376742
0.376742
0.376752
0.376762
0.376772
0.376782
0.376782
0.376792
0.376803
0.376813
0.376823
0.376823
0.376833
0.376844
0.376854
0.376865
0.376865
0.376875
0.376885
0.376896
0.376906
0.376906
0.376917
0.376927
0.376938
0.376949
0.376949
0.376959
0.37697
0.376981
0.376991
0.376991
0.377002
0.377013
0.377024
0.377035
0.377035
0.377046
0.377056
0.377067
0.377078
0.377078
0.377089
0.3771
0.377111
0.377122
0.377122
0.377134
0.377145
0.377156
0.377167
0.377167
0.377178
0.37719
0.377201
0.377212
0.377212
0.377224
0.377235
0.377246
0.377258
0.377258
0.377269
0.377281
0.377292
0.377304
0.377304
0.377315
0.377327
0.377339
0.37735
0.37735
0.377362
0.377374
0.377385
0.377397
0.377397
0.377409
0.377421
0.377433
0.377445
0.377445
0.377457
0.377469
0.377481
0.377493
0.377493
0.377505
0.377517
0.377529
0.377541
0.377541
0.377553
0.377565
0.377577
0.37759
0.37759
0.377602
0.377614
0.377627
0.377639
0.377639
0.377651
0.377664
0.377676
0.377689
0.377689
0.377701
0.377714
0.377726
0.377739
0.377739
0.377752
0.377764
0.377777
0.37779
0.37779
0.377802
0.377815
0.377828
0.377841
0.377841
0.377854
0.377867
0.377879
0.377892
0.377892
0.377905
0.377918
0.377931
0.377945
0.377945
0.377958
0.377971
0.377984
0.377997
0.377997
0.37801
0.378024
0.378037
0.37805
0.37805
0.378063
0.378077
0.37809
0.378104
0.378104
0.378117
0.378131
0.378144
0.378158
0.378158
0.378171
0.378185
0.378198
0.378212
0.378212
0.378226
0.378239
0.378253
0.378267
0.378267
0.378281
0.378295
0.378308
0.378322
0.378322
0.378336
0.37835
0.378364
0.378378
0.378378
0.378392
0.378406
0.37842
0.378434
0.378434
0.378448
0.378463
0.378477
0.378491
0.378491
0.378505
0.37852
0.378534
0.378548
0.378548
0.378563
0.378577
0.378592
0.378606
0.378606
0.378621
0.378635
0.37865
0.378664
0.378664
0.378679
0.378693
0.378708
0.378723
0.378723
0.378738
0.378752
0.378767
0.378782
0.378782
0.378797
0.378812
0.378827
0.378841
0.378841
0.378856
0.378871
0.378886
0.378901
0.378901
0.378917
0.378932
0.378947
0.378962
0.378962
0.378977
0.378992
0.379008
0.379023
0.379023
0.379038
0.379054
0.379069
0.379084
0.379084
0.3791
0.379115
0.379131
0.379146
0.379146
0.379162
0.379177
0.379193
0.379209
0.379209
0.379224
0.37924
0.379256
0.379271
0.379271
0.379287
0.379303
0.379319
0.379335
0.379335
0.379351
0.379367
0.379382
0.379398
0.379398
0.379414
0.37943
0.379447
0.379463
0.379463
0.379479
0.379495
0.379511
0.379527
0.379527
0.379544
0.37956
0.379576
0.379593
0.379593
0.379609
0.379625
0.379642
0.379658
0.379658
0.379675
0.379691
0.379708
0.379724
0.379724
0.379741
0.379757
0.379774
0.379791
0.379791
0.379807
0.379824
0.379841
0.379858
0.379858
0.379875
0.379891
0.379908
0.379925
0.379925
0.379942
0.379959
0.379976
0.379993
0.379993
0.38001
0.380027
0.380044
0.380062
0.380062
0.380079
0.380096
0.380113
0.380131
0.380131
0.380148
0.380165
0.380182
0.3802
0.3802
0.380217
0.380235
0.380252
0.38027
0.38027
0.380287
0.380305
0.380322
0.38034
0.38034
0.380358
0.380375
0.380393
0.380411
0.380411
0.380428
0.380446
0.380464
0.380482
0.380482
0.3805
0.380518
0.380536
0.380554
0.380554
0.380572
0.38059
0.380608
0.380626
0.380626
0.380644
0.380662
0.38068
0.380698
0.380698
0.380717
0.380735
0.380753
0.380771
0.380771
0.38079
0.380808
0.380827
0.380845
0.380845
0.380863
0.380882
0.3809
0.380919
0.380919
0.380938
0.380956
0.380975
0.380993
0.380993
0.381012
0.381031
0.38105
0.381068
0.381068
0.381087
0.381106
0.381125
0.381144
0.381144
0.381163
0.381182
0.381201
0.38122
0.38122
0.381239
0.381258
0.381277
0.381296
0.381296
0.381315
0.381334
0.381354
0.381373
0.381373
0.381392
0.381411
0.381431
0.38145
0.38145
0.38147
0.381489
0.381508
0.381528
0.381528
0.381547
0.381567
0.381586
0.381606
0.381606
0.381626
0.381645
0.381665
0.381685
0.381685
0.381704
0.381724
0.381744
0.381764
0.381764
0.381784
0.381804
0.381824
0.381843
0.381843
0.381863
0.381883
0.381903
0.381924
0.381924
0.381944
0.381964
0.381984
0.382004
0.382004
0.382024
0.382045
0.382065
0.382085
0.382085
0.382105
0.382126
0.382146
0.382167
0.382167
0.382187
0.382207
0.382228
0.382248
0.382248
0.382269
0.38229
0.38231
0.382331
0.382331
0.382352
0.382372
0.382393
0.382414
0.382414
0.382435
0.382455
0.382476
0.382497
0.382497
0.382518
0.382539
0.38256
0.382581
0.382581
0.382602
0.382623
0.382644
0.382665
0.382665
0.382686
0.382707
0.382729
0.38275
0.38275
0.382771
0.382792
0.382814
0.382835
0.382835
0.382856
0.382878
0.382899
0.382921
0.382921
0.382942
0.382964
0.382985
0.383007
0.383007
0.383028
0.38305
0.383072
0.383093
0.383093
0.383115
0.383137
0.383159
0.38318
0.38318
0.383202
0.383224
0.383246
0.383268
0.383268
0.38329
0.383312
0.383334
0.383356
0.383356
0.383378
0.3834
0.383422
0.383444
0.383444
0.383467
0.383489
0.383511
0.383533
0.383533
0.383556
0.383578
0.3836
0.383623
0.383623
0.383645
0.383668
0.38369
0.383713
0.383713
0.383735
0.383758
0.38378
0.383803
0.383803
0.383825
0.383848
0.383871
0.383894
0.383894
0.383916
0.383939
0.383962
0.383985
0.383985
0.384008
0.384031
0.384054
0.384077
0.384077
0.3841
0.384123
0.384146
0.384169
0.384169
0.384192
0.384215
0.384238
0.384261
0.384261
0.384285
0.384308
0.384331
0.384354
0.384354
0.384378
0.384401
0.384425
0.384448
0.384448
0.384472
0.384495
0.384519
0.384542
0.384542
0.384566
0.384589
0.384613
0.384637
0.384637
0.38466
0.384684
0.384708
0.384732
0.384732
0.384755
0.384779
0.384803
0.384827
0.384827
0.384851
0.384875
0.384899
0.384923
0.384923
0.384947
0.384971
0.384995
0.385019
0.385019
0.385043
0.385068
0.385092
0.385116
0.385116
0.38514
0.385165
0.385189
0.385213
0.385213
0.385238
0.385262
0.385287
0.385311
0.385311
0.385336
0.38536
0.385385
0.385409
0.385409
0.385434
0.385459
0.385483
0.385508
0.385508
0.385533
0.385558
0.385582
0.385607
0.385607
0.385632
0.385657
0.385682
0.385707
0.385707
0.385732
0.385757
0.385782
0.385807
0.385807
0.385832
0.385857
0.385882
0.385907
0.385907
0.385933
0.385958
0.385983
0.386008
0.386008
0.386034
0.386059
0.386084
0.38611
0.38611
0.386135
0.386161
0.386186
0.386212
0.386212
0.386237
0.386263
0.386289
0.386314
0.386314
0.38634
0.386366
0.386391
0.386417
0.386417
0.386443
0.386469
0.386495
0.38652
0.38652
0.386546
0.386572
0.386598
0.386624
0.386624
0.38665
0.386676
0.386702
0.386729
0.386729
0.386755
0.386781
0.386807
0.386833
0.386833
0.38686
0.386886
0.386912
0.386938
0.386938
0.386965
0.386991
0.387018
0.387044
0.387044
0.387071
0.387097
0.387124
0.38715
0.38715
0.387177
0.387203
0.38723
0.387257
0.387257
0.387284
0.38731
0.387337
0.387364
0.387364
0.387391
0.387418
0.387444
0.387471
0.387471
0.387498
0.387525
0.387552
0.387579
0.387579
0.387606
0.387634
0.387661
0.387688
0.387688
0.387715
0.387742
0.387769
0.387797
0.387797
0.387824
0.387851
0.387879
0.387906
0.387906
0.387934
0.387961
0.387988
0.388016
0.388016
0.388044
0.388071
0.388099
0.388126
0.388126
0.388154
0.388182
0.388209
0.388237
0.388237
0.388265
0.388293
0.38832
0.388348
0.388348
0.388376
0.388404
0.388432
0.38846
0.38846
0.388488
0.388516
0.388544
0.388572
0.388572
0.3886
0.388628
0.388657
0.388685
0.388685
0.388713
0.388741
0.38877
0.388798
0.388798
0.388826
0.388855
0.388883
0.388911
0.388911
0.38894
0.388968
0.388997
0.389025
0.389025
0.389054
0.389083
0.389111
0.38914
0.38914
0.389169
0.389197
0.389226
0.389255
0.389255
0.389284
0.389313
0.389341
0.38937
0.38937
0.389399
0.389428
0.389457
0.389486
0.389486
0.389515
0.389544
0.389573
0.389603
0.389603
0.389632
0.389661
0.38969
0.389719
0.389719
0.389749
0.389778
0.389807
0.389837
0.389837
0.389866
0.389895
0.389925
0.389954
0.389954
0.389984
0.390013
0.390043
0.390073
0.390073
0.390102
0.390132
0.390162
0.390191
0.390191
0.390221
0.390251
0.390281
0.39031
0.39031
0.39034
0.39037
0.3904
0.39043
0.39043
0.39046
0.39049
0.39052
0.39055
0.39055
0.39058
0.39061
0.39064
0.390671
0.390671
0.390701
0.390731
0.390761
0.390792
0.390792
0.390822
0.390852
0.390883
0.390913
0.390913
0.390944
0.390974
0.391004
0.391035
0.391035
0.391066
0.391096
0.391127
0.391157
0.391157
0.391188
0.391219
0.391249
0.39128
0.39128
0.391311
0.391342
0.391373
0.391404
0.391404
0.391434
0.391465
0.391496
0.391527
0.391527
0.391558
0.391589
0.39162
0.391652
0.391652
0.391683
0.391714
0.391745
0.391776
0.391776
0.391808
0.391839
0.39187
0.391901
0.391901
0.391933
0.391964
0.391996
0.392027
0.392027
0.392059
0.39209
0.392122
0.392153
0.392153
0.392185
0.392216
0.392248
0.39228
0.39228
0.392311
0.392343
0.392375
0.392407
0.392407
0.392439
0.39247
0.392502
0.392534
0.392534
0.392566
0.392598
0.39263
0.392662
0.392662
0.392694
0.392726
0.392758
0.392791
0.392791
0.392823
0.392855
0.392887
0.39292
0.39292
0.392952
0.392984
0.393016
0.393049
0.393049
0.393081
0.393114
0.393146
0.393179
0.393179
0.393211
0.393244
0.393276
0.393309
0.393309
0.393342
0.393374
0.393407
0.39344
0.39344
0.393472
0.393505
0.393538
0.393571
0.393571
0.393604
0.393637
0.39367
0.393703
0.393703
0.393736
0.393769
0.393802
0.393835
0.393835
0.393868
0.393901
0.393934
0.393967
0.393967
0.394001
0.394034
0.394067
0.3941
0.3941
0.394134
0.394167
0.3942
0.394234
0.394234
0.394267
0.394301
0.394334
0.394368
0.394368
0.394401
0.394435
0.394469
0.394502
0.394502
0.394536
0.39457
0.394603
0.394637
0.394637
0.394671
0.394705
0.394739
0.394773
0.394773
0.394807
0.39484
0.394874
0.394908
0.394908
0.394942
0.394977
0.395011
0.395045
0.395045
0.395079
0.395113
0.395147
0.395182
0.395182
0.395216
0.39525
0.395284
0.395319
0.395319
0.395353
0.395388
0.395422
0.395456
0.395456
0.395491
0.395525
0.39556
0.395595
0.395595
0.395629
0.395664
0.395699
0.395733
0.395733
0.395768
0.395803
0.395838
0.395872
0.395872
0.395907
0.395942
0.395977
0.396012
0.396012
0.396047
0.396082
0.396117
0.396152
0.396152
0.396187
0.396222
0.396257
0.396292
0.396292
0.396328
0.396363
0.396398
0.396433
0.396433
0.396469
0.396504
0.396539
0.396575
0.396575
0.39661
0.396646
0.396681
0.396717
0.396717
0.396752
0.396788
0.396823
0.396859
0.396859
0.396895
0.39693
0.396966
0.397002
0.397002
0.397037
0.397073
0.397109
0.397145
0.397145
0.397181
0.397217
0.397253
0.397289
0.397289
0.397325
0.397361
0.397397
0.397433
0.397433
0.397469
0.397505
0.397541
0.397578
0.397578
0.397614
0.39765
0.397686
0.397723
0.397723
0.397759
0.397795
0.397832
0.397868
0.397868
0.397905
0.397941
0.397978
0.398014
0.398014
0.398051
0.398087
0.398124
0.398161
0.398161
0.398197
0.398234
0.398271
0.398308
0.398308
0.398345
0.398381
0.398418
0.398455
0.398455
0.398492
0.398529
0.398566
0.398603
0.398603
0.39864
0.398677
0.398714
0.398751
0.398751
0.398789
0.398826
0.398863
0.3989
0.3989
0.398938
0.398975
0.399012
0.39905
0.39905
0.399087
0.399124
0.399162
0.399199
0.399199
0.399237
0.399274
0.399312
0.39935
0.39935
0.399387
0.399425
0.399462
0.3995
0.3995
0.399538
0.399576
0.399614
0.399651
0.399651
0.399689
0.399727
0.399765
0.399803
0.399803
0.399841
0.399879
0.399917
0.399955
0.399955
0.399993
0.400031
0.400069
0.400108
0.400108
0.400146
0.400184
0.400222
0.400261
0.400261
0.400299
0.400337
0.400376
0.400414
0.400414
0.400452
0.400491
0.400529
0.400568
0.400568
0.400606
0.400645
0.400684
0.400722
0.400722
0.400761
0.4008
0.400838
0.400877
0.400877
0.400916
0.400955
0.400994
0.401032
0.401032
0.401071
0.40111
0.401149
0.401188
0.401188
0.401227
0.401266
0.401305
0.401344
0.401344
0.401384
0.401423
0.401462
0.401501
0.401501
0.40154
0.40158
0.401619
0.401658
0.401658
0.401698
0.401737
0.401777
0.401816
0.401816
0.401855
0.401895
0.401935
0.401974
0.401974
0.402014
0.402053
0.402093
0.402133
0.402133
0.402172
0.402212
0.402252
0.402292
0.402292
0.402331
0.402371
0.402411
0.402451
0.402451
0.402491
0.402531
0.402571
0.402611
0.402611
0.402651
0.402691
0.402731
0.402771
0.402771
0.402812
0.402852
0.402892
0.402932
0.402932
0.402973
0.403013
0.403053
0.403094
0.403094
0.403134
0.403175
0.403215
0.403255
0.403255
0.403296
0.403337
0.403377
0.403418
0.403418
0.403458
0.403499
0.40354
0.40358
0.40358
0.403621
0.403662
0.403703
0.403744
0.403744
0.403785
0.403825
0.403866
0.403907
0.403907
0.403948
0.403989
0.40403
0.404071
0.404071
0.404113
0.404154
0.404195
0.404236
0.404236
0.404277
0.404318
0.40436
0.404401
0.404401
0.404442
0.404484
0.404525
0.404567
0.404567
0.404608
0.404649
0.404691
0.404733
0.404733
0.404774
0.404816
0.404857
0.404899
0.404899
0.404941
0.404982
0.405024
0.405066
0.405066
0.405108
0.405149
0.405191
0.405233
0.405233
0.405275
0.405317
0.405359
0.405401
0.405401
0.405443
0.405485
0.405527
0.405569
0.405569
0.405611
0.405654
0.405696
0.405738
0.405738
0.40578
0.405823
0.405865
0.405907
0.405907
0.40595
0.405992
0.406034
0.406077
0.406077
0.406119
0.406162
0.406204
0.406247
0.406247
0.40629
0.406332
0.406375
0.406418
0.406418
0.40646
0.406503
0.406546
0.406589
0.406589
0.406632
0.406674
0.406717
0.40676
0.40676
0.406803
0.406846
0.406889
0.406932
0.406932
0.406975
0.407018
0.407062
0.407105
0.407105
0.407148
0.407191
0.407234
0.407278
0.407278
0.407321
0.407364
0.407408
0.407451
0.407451
0.407494
0.407538
0.407581
0.407625
0.407625
0.407668
0.407712
0.407755
0.407799
0.407799
0.407843
0.407886
0.40793
0.407974
0.407974
0.408018
0.408061
0.408105
0.408149
0.408149
0.408193
0.408237
0.408281
0.408325
0.408325
0.408369
0.408413
0.408457
0.408501
0.408501
0.408545
0.408589
0.408633
0.408678
0.408678
0.408722
0.408766
0.40881
0.408855
0.408855
0.408899
0.408943
0.408988
0.409032
0.409032
0.409077
0.409121
0.409166
0.40921
0.40921
0.409255
0.409299
0.409344
0.409389
0.409389
0.409433
0.409478
0.409523
0.409568
0.409568
0.409612
0.409657
0.409702
0.409747
0.409747
0.409792
0.409837
0.409882
0.409927
0.409927
0.409972
0.410017
0.410062
0.410107
0.410107
0.410152
0.410198
0.410243
0.410288
0.410288
0.410333
0.410379
0.410424
0.410469
0.410469
0.410515
0.41056
0.410606
0.410651
0.410651
0.410696
0.410742
0.410788
0.410833
0.410833
0.410879
0.410924
0.41097
0.411016
0.411016
0.411062
0.411107
0.411153
0.411199
0.411199
0.411245
0.411291
0.411337
0.411382
0.411382
0.411428
0.411474
0.41152
0.411567
0.411567
0.411613
0.411659
0.411705
0.411751
0.411751
0.411797
0.411843
0.41189
0.411936
0.411936
0.411982
0.412029
0.412075
0.412121
0.412121
0.412168
0.412214
0.412261
0.412307
0.412307
0.412354
0.4124
0.412447
0.412494
0.412494
0.41254
0.412587
0.412634
0.41268
0.41268
0.412727
0.412774
0.412821
0.412868
0.412868
0.412915
0.412962
0.413008
0.413055
0.413055
0.413102
0.413149
0.413197
0.413244
0.413244
0.413291
0.413338
0.413385
0.413432
0.413432
0.41348
0.413527
0.413574
0.413621
0.413621
0.413669
0.413716
0.413764
0.413811
0.413811
0.413859
0.413906
0.413954
0.414001
0.414001
0.414049
0.414096
0.414144
0.414192
0.414192
0.414239
0.414287
0.414335
0.414383
0.414383
0.41443
0.414478
0.414526
0.414574
0.414574
0.414622
0.41467
0.414718
0.414766
0.414766
0.414814
0.414862
0.41491
0.414958
0.414958
0.415006
0.415055
0.415103
0.415151
0.415151
0.415199
0.415248
0.415296
0.415344
0.415344
0.415393
0.415441
0.41549
0.415538
0.415538
0.415587
0.415635
0.415684
0.415732
0.415732
0.415781
0.41583
0.415878
0.415927
0.415927
0.415976
0.416025
0.416073
0.416122
0.416122
0.416171
0.41622
0.416269
0.416318
0.416318
0.416367
0.416416
0.416465
0.416514
0.416514
0.416563
0.416612
0.416661
0.416711
0.416711
0.41676
0.416809
0.416858
0.416908
0.416908
0.416957
0.417006
0.417056
0.417105
0.417105
0.417154
0.417204
0.417253
0.417303
0.417303
0.417353
0.417402
0.417452
0.417501
0.417501
0.417551
0.417601
0.41765
0.4177
0.4177
0.41775
0.4178
0.41785
0.4179
0.4179
0.417949
0.417999
0.418049
0.418099
0.418099
0.418149
0.418199
0.418249
0.4183
0.4183
0.41835
0.4184
0.41845
0.4185
0.4185
0.418551
0.418601
0.418651
0.418701
0.418701
0.418752
0.418802
0.418853
0.418903
0.418903
0.418954
0.419004
0.419055
0.419105
0.419105
0.419156
0.419206
0.419257
0.419308
0.419308
0.419359
0.419409
0.41946
0.419511
0.419511
0.419562
0.419613
0.419663
0.419714
0.419714
0.419765
0.419816
0.419867
0.419918
0.419918
0.419969
0.42002
0.420072
0.420123
0.420123
0.420174
0.420225
0.420276
0.420328
0.420328
0.420379
0.42043
0.420482
0.420533
0.420533
0.420584
0.420636
0.420687
0.420739
0.420739
0.42079
0.420842
0.420893
0.420945
0.420945
0.420997
0.421048
0.4211
0.421152
0.421152
0.421204
0.421255
0.421307
0.421359
0.421359
0.421411
0.421463
0.421515
0.421567
0.421567
0.421619
0.421671
0.421723
0.421775
0.421775
0.421827
0.421879
0.421931
0.421983
0.421983
0.422036
0.422088
0.42214
0.422193
0.422193
0.422245
0.422297
0.42235
0.422402
0.422402
0.422455
0.422507
0.42256
0.422612
0.422612
0.422665
0.422717
0.42277
0.422823
0.422823
0.422875
0.422928
0.422981
0.423033
0.423033
0.423086
0.423139
0.423192
0.423245
0.423245
0.423298
0.423351
0.423404
0.423457
0.423457
0.42351
0.423563
0.423616
0.423669
0.423669
0.423722
0.423775
0.423829
0.423882
0.423882
0.423935
0.423988
0.424042
0.424095
0.424095
0.424148
0.424202
0.424255
0.424309
0.424309
0.424362
0.424416
0.424469
0.424523
0.424523
0.424577
0.42463
0.424684
0.424738
0.424738
0.424791
0.424845
0.424899
0.424953
0.424953
0.425007
0.42506
0.425114
0.425168
0.425168
0.425222
0.425276
0.42533
0.425384
0.425384
0.425438
0.425492
0.425547
0.425601
0.425601
0.425655
0.425709
0.425763
0.425818
0.425818
0.425872
0.425926
0.425981
0.426035
0.426035
0.42609
0.426144
0.426199
0.426253
0.426253
0.426308
0.426362
0.426417
0.426471
0.426471
0.426526
0.426581
0.426636
0.42669
0.42669
0.426745
0.4268
0.426855
0.42691
0.42691
0.426964
0.427019
0.427074
0.427129
0.427129
0.427184
0.427239
0.427294
0.42735
0.42735
0.427405
0.42746
0.427515
0.42757
0.42757
0.427625
0.427681
0.427736
0.427791
0.427791
0.427847
0.427902
0.427958
0.428013
0.428013
0.428068
0.428124
0.428179
0.428235
0.428235
0.428291
0.428346
0.428402
0.428458
0.428458
0.428513
0.428569
0.428625
0.428681
0.428681
0.428736
0.428792
0.428848
0.428904
0.428904
0.42896
0.429016
0.429072
0.429128
0.429128
0.429184
0.42924
0.429296
0.429352
0.429352
0.429409
0.429465
0.429521
0.429577
0.429577
0.429634
0.42969
0.429746
0.429803
0.429803
0.429859
0.429915
0.429972
0.430028
0.430028
0.430085
0.430141
0.430198
0.430255
0.430255
0.430311
0.430368
0.430425
0.430481
0.430481
0.430538
0.430595
0.430652
0.430709
0.430709
0.430765
0.430822
0.430879
0.430936
0.430936
0.430993
0.43105
0.431107
0.431164
0.431164
0.431221
0.431279
0.431336
0.431393
0.431393
0.43145
0.431507
0.431565
0.431622
0.431622
0.431679
0.431737
0.431794
0.431852
0.431852
0.431909
0.431966
0.432024
0.432082
0.432082
0.432139
0.432197
0.432254
0.432312
0.432312
0.43237
0.432427
0.432485
0.432543
0.432543
0.432601
0.432659
0.432716
0.432774
0.432774
0.432832
0.43289
0.432948
0.433006
0.433006
0.433064
0.433122
0.43318
0.433238
0.433238
0.433297
0.433355
0.433413
0.433471
0.433471
0.43353
0.433588
0.433646
0.433705
0.433705
0.433763
0.433821
0.43388
0.433938
0.433938
0.433997
0.434055
0.434114
0.434172
0.434172
0.434231
0.43429
0.434348
0.434407
0.434407
0.434466
0.434525
0.434583
0.434642
0.434642
0.434701
0.43476
0.434819
0.434878
0.434878
0.434937
0.434996
0.435055
0.435114
0.435114
0.435173
0.435232
0.435291
0.43535
0.43535
0.43541
0.435469
0.435528
0.435587
0.435587
0.435647
0.435706
0.435765
0.435825
0.435825
0.435884
0.435944
0.436003
0.436063
0.436063
0.436122
0.436182
0.436241
0.436301
0.436301
0.436361
0.43642
0.43648
0.43654
0.43654
0.4366
0.43666
0.436719
0.436779
0.436779
0.436839
0.436899
0.436959
0.437019
0.437019
0.437079
0.437139
0.437199
0.437259
0.437259
0.437319
0.43738
0.43744
0.4375
0.4375
0.43756
0.437621
0.437681
0.437741
0.437741
0.437802
0.437862
0.437922
0.437983
0.437983
0.438043
0.438104
0.438164
0.438225
0.438225
0.438286
0.438346
0.438407
0.438468
0.438468
0.438528
0.438589
0.43865
0.438711
0.438711
0.438771
0.438832
0.438893
0.438954
0.438954
0.439015
0.439076
0.439137
0.439198
0.439198
0.439259
0.43932
0.439381
0.439443
0.439443
0.439504
0.439565
0.439626
0.439688
0.439688
0.439749
0.43981
0.439872
0.439933
0.439933
0.439994
0.440056
0.440117
0.440179
0.440179
0.44024
0.440302
0.440363
0.440425
0.440425
0.440487
0.440548
0.44061
0.440672
0.440672
0.440734
0.440795
0.440857
0.440919
0.440919
0.440981
0.441043
0.441105
0.441167
0.441167
0.441229
0.441291
0.441353
0.441415
0.441415
0.441477
0.441539
0.441602
0.441664
0.441664
0.441726
0.441788
0.441851
0.441913
0.441913
0.441975
0.442038
0.4421
0.442162
0.442162
0.442225
0.442287
0.44235
0.442413
0.442413
0.442475
0.442538
0.4426
0.442663
0.442663
0.442726
0.442789
0.442851
0.442914
0.442914
0.442977
0.44304
0.443103
0.443166
0.443166
0.443229
0.443292
0.443355
0.443418
0.443418
0.443481
0.443544
0.443607
0.44367
0.44367
0.443733
0.443796
0.44386
0.443923
0.443923
0.443986
0.444049
0.444113
0.444176
0.444176
0.44424
0.444303
0.444367
0.44443
0.44443
0.444494
0.444557
0.444621
0.444684
0.444684
0.444748
0.444812
0.444875
0.444939
0.444939
0.445003
0.445067
0.44513
0.445194
0.445194
0.445258
0.445322
0.445386
0.44545
0.44545
0.445514
0.445578
0.445642
0.445706
0.445706
0.44577
0.445834
0.445899
0.445963
0.445963
0.446027
0.446091
0.446156
0.44622
0.44622
0.446284
0.446349
0.446413
0.446478
0.446478
0.446542
0.446607
0.446671
0.446736
0.446736
0.4468
0.446865
0.446929
0.446994
0.446994
0.447059
0.447124
0.447188
0.447253
0.447253
0.447318
0.447383
0.447448
0.447513
0.447513
0.447578
0.447642
0.447707
0.447773
0.447773
0.447838
0.447903
0.447968
0.448033
0.448033
0.448098
0.448163
0.448229
0.448294
0.448294
0.448359
0.448424
0.44849
0.448555
0.448555
0.448621
0.448686
0.448751
0.448817
0.448817
0.448882
0.448948
0.449014
0.449079
0.449079
0.449145
0.449211
0.449276
0.449342
0.449342
0.449408
0.449474
0.449539
0.449605
0.449605
0.449671
0.449737
0.449803
0.449869
0.449869
0.449935
0.450001
0.450067
0.450133
0.450133
0.450199
0.450265
0.450332
0.450398
0.450398
0.450464
0.45053
0.450597
0.450663
0.450663
0.450729
0.450796
0.450862
0.450928
0.450928
0.450995
0.451061
0.451128
0.451194
0.451194
0.451261
0.451328
0.451394
0.451461
0.451461
0.451528
0.451594
0.451661
0.451728
0.451728
0.451795
0.451862
0.451929
0.451995
0.451995
0.452062
0.452129
0.452196
0.452263
0.452263
0.45233
0.452398
0.452465
0.452532
0.452532
0.452599
0.452666
0.452733
0.452801
0.452801
0.452868
0.452935
0.453003
0.45307
0.45307
0.453137
0.453205
0.453272
0.45334
0.45334
0.453407
0.453475
0.453543
0.45361
0.45361
0.453678
0.453746
0.453813
0.453881
0.453881
0.453949
0.454017
0.454084
0.454152
0.454152
0.45422
0.454288
0.454356
0.454424
0.454424
0.454492
0.45456
0.454628
0.454696
0.454696
0.454764
0.454832
0.454901
0.454969
0.454969
0.455037
0.455105
0.455174
0.455242
0.455242
0.45531
0.455379
0.455447
0.455516
0.455516
0.455584
0.455653
0.455721
0.45579
0.45579
0.455858
0.455927
0.455995
0.456064
0.456064
0.456133
0.456202
0.45627
0.456339
0.456339
0.456408
0.456477
0.456546
0.456615
0.456615
0.456684
0.456753
0.456822
0.456891
0.456891
0.45696
0.457029
0.457098
0.457167
0.457167
0.457236
0.457306
0.457375
0.457444
0.457444
0.457513
0.457583
0.457652
0.457721
0.457721
0.457791
0.45786
0.45793
0.457999
0.457999
0.458069
0.458138
0.458208
0.458278
0.458278
0.458347
0.458417
0.458487
0.458557
0.458557
0.458626
0.458696
0.458766
0.458836
0.458836
0.458906
0.458976
0.459046
0.459116
0.459116
0.459186
0.459256
0.459326
0.459396
0.459396
0.459466
0.459536
0.459606
0.459677
0.459677
0.459747
0.459817
0.459887
0.459958
0.459958
0.460028
0.460099
0.460169
0.460239
0.460239
0.46031
0.46038
0.460451
0.460522
0.460522
0.460592
0.460663
0.460734
0.460804
0.460804
0.460875
0.460946
0.461017
0.461087
0.461087
0.461158
0.461229
0.4613
0.461371
0.461371
0.461442
0.461513
0.461584
0.461655
0.461655
0.461726
0.461797
0.461868
0.461939
0.461939
0.462011
0.462082
0.462153
0.462224
0.462224
0.462296
0.462367
0.462439
0.46251
0.46251
0.462581
0.462653
0.462724
0.462796
0.462796
0.462867
0.462939
0.463011
0.463082
0.463082
0.463154
0.463226
0.463298
0.463369
0.463369
0.463441
0.463513
0.463585
0.463657
0.463657
0.463729
0.463801
0.463873
0.463945
0.463945
0.464017
0.464089
0.464161
0.464233
0.464233
0.464305
0.464377
0.464449
0.464522
0.464522
0.464594
0.464666
0.464739
0.464811
0.464811
0.464883
0.464956
0.465028
0.465101
0.465101
0.465173
0.465246
0.465318
0.465391
0.465391
0.465464
0.465536
0.465609
0.465682
0.465682
0.465755
0.465827
0.4659
0.465973
0.465973
0.466046
0.466119
0.466192
0.466265
0.466265
0.466338
0.466411
0.466484
0.466557
0.466557
0.46663
0.466703
0.466776
0.466849
0.466849
0.466923
0.466996
0.467069
0.467143
0.467143
0.467216
0.467289
0.467363
0.467436
0.467436
0.46751
0.467583
0.467657
0.46773
0.46773
0.467804
0.467877
0.467951
0.468025
0.468025
0.468099
0.468172
0.468246
0.46832
0.46832
0.468394
0.468468
0.468541
0.468615
0.468615
0.468689
0.468763
0.468837
0.468911
0.468911
0.468985
0.46906
0.469134
0.469208
0.469208
0.469282
0.469356
0.469431
0.469505
0.469505
0.469579
0.469653
0.469728
0.469802
0.469802
0.469877
0.469951
0.470026
0.4701
0.4701
0.470175
0.470249
0.470324
0.470399
0.470399
0.470473
0.470548
0.470623
0.470697
0.470697
0.470772
0.470847
0.470922
0.470997
0.470997
0.471072
0.471147
0.471222
0.471297
0.471297
0.471372
0.471447
0.471522
0.471597
0.471597
0.471672
0.471747
0.471823
0.471898
0.471898
0.471973
0.472048
0.472124
0.472199
0.472199
0.472274
0.47235
0.472425
0.472501
0.472501
0.472576
0.472652
0.472727
0.472803
0.472803
0.472879
0.472954
0.47303
0.473106
0.473106
0.473182
0.473257
0.473333
0.473409
0.473409
0.473485
0.473561
0.473637
0.473713
0.473713
0.473789
0.473865
0.473941
0.474017
0.474017
0.474093
0.474169
0.474245
0.474322
0.474322
0.474398
0.474474
0.47455
0.474627
0.474627
0.474703
0.474779
0.474856
0.474932
0.474932
0.475009
0.475085
0.475162
0.475238
0.475238
0.475315
0.475392
0.475468
0.475545
0.475545
0.475622
0.475698
0.475775
0.475852
0.475852
0.475929
0.476006
0.476083
0.47616
0.47616
0.476237
0.476314
0.476391
0.476468
0.476468
0.476545
0.476622
0.476699
0.476776
0.476776
0.476853
0.476931
0.477008
0.477085
0.477085
0.477163
0.47724
0.477317
0.477395
0.477395
0.477472
0.47755
0.477627
0.477705
0.477705
0.477782
0.47786
0.477937
0.478015
0.478015
0.478093
0.478171
0.478248
0.478326
0.478326
0.478404
0.478482
0.47856
0.478638
0.478638
0.478715
0.478793
0.478871
0.478949
0.478949
0.479027
0.479106
0.479184
0.479262
0.479262