<?xml version="1.0"?>
<VTKFile type="UnstructuredGrid" version="0.1" byte_order="LittleEndian">
<UnstructuredGrid>
<Piece NumberOfPoints="5000" NumberOfCells="4000">
<PointData Scalars="Reaction 0">
<DataArray type="Float32" Name="Reaction 0" format="ascii">
0.363747
0.363747
0.363747
0.363747
0.363747
0.363747
0.363747
0.363747
0.363747
0.363748
0.363748
0.363748
0.363748
0.363748
0.363749
0.363749
0.363749
0.36375
0.36375
0.36375
0.36375
0.363751
0.363751
0.363752
0.363753
0.363753
0.363753
0.363754
0.363754
0.363755
0.363755
0.363756
0.363757
0.363757
0.363758
0.363758
0.363759
0.36376
0.363761
0.363762
0.363762
0.363763
0.363764
0.363765
0.363766
0.363766
0.363767
0.363768
0.363769
0.36377
0.36377
0.363771
0.363773
0.363774
0.363775
0.363775
0.363776
0.363778
0.363779
0.363781
0.363781
0.363782
0.363783
0.363785
0.363786
0.363786
0.363788
0.36379
0.363791
0.363793
0.363793
0.363795
0.363796
0.363798
0.3638
0.3638
0.363801
0.363803
0.363805
0.363807
0.363807
0.363809
0.363811
0.363813
0.363815
0.363815
0.363817
0.363819
0.363821
0.363823
0.363823
0.363825
0.363827
0.36383
0.363832
0.363832
0.363834
0.363836
0.363839
0.363841
0.363841
0.363843
0.363846
0.363848
0.363851
0.363851
0.363853
0.363856
0.363858
0.363861
0.363861
0.363863
0.363866
0.363869
0.363871
0.363871
0.363874
0.363877
0.36388
0.363882
0.363882
0.363885
0.363888
0.363891
0.363894
0.363894
0.363897
0.3639
0.363903
0.363906
0.363906
0.363909
0.363912
0.363915
0.363919
0.363919
0.363922
0.363925
0.363928
0.363932
0.363932
0.363935
0.363938
0.363942
0.363945
0.363945
0.363948
0.363952
0.363955
0.363959
0.363959
0.363962
0.363966
0.36397
0.363973
0.363973
0.363977
0.363981
0.363984
0.363988
0.363988
0.363992
0.363996
0.364
0.364003
0.364003
0.364007
0.364011
0.364015
0.364019
0.364019
0.364023
0.364027
0.364031
0.364036
0.364036
0.36404
0.364044
0.364048
0.364052
0.364052
0.364057
0.364061
0.364065
0.36407
0.36407
0.364074
0.364078
0.364083
0.364087
0.364087
0.364092
0.364096
0.364101
0.364105
0.364105
0.36411
0.364115
0.364119
0.364124
0.364124
0.364129
0.364133
0.364138
0.364143
0.364143
0.364148
0.364153
0.364158
0.364163
0.364163
0.364168
0.364173
0.364178
0.364183
0.364183
0.364188
0.364193
0.364198
0.364203
0.364203
0.364208
0.364214
0.364219
0.364224
0.364224
0.36423
0.364235
0.36424
0.364246
0.364246
0.364251
0.364257
0.364262
0.364268
0.364268
0.364273
0.364279
0.364284
0.36429
0.36429
0.364296
0.364301
0.364307
0.364313
0.364313
0.364319
0.364325
0.36433
0.364336
0.364336
0.364342
0.364348
0.364354
0.36436
0.36436
0.364366
0.364372
0.364378
0.364384
0.364384
0.364391
0.364397
0.364403
0.364409
0.364409
0.364415
0.364422
0.364428
0.364434
0.364434
0.364441
0.364447
0.364454
0.36446
0.36446
0.364467
0.364473
0.36448
0.364486
0.364486
0.364493
0.364499
0.364506
0.364513
0.364513
0.36452
0.364526
0.364533
0.36454
0.36454
0.364547
0.364554
0.364561
0.364568
0.364568
0.364575
0.364582
0.364589
0.364596
0.364596
0.364603
0.36461
0.364617
0.364624
0.364624
0.364631
0.364639
0.364646
0.364653
0.364653
0.364661
0.364668
0.364675
0.364683
0.364683
0.36469
0.364698
0.364705
0.364713
0.364713
0.36472
0.364728
0.364735
0.364743
0.364743
0.364751
0.364758
0.364766
0.364774
0.364774
0.364782
0.36479
0.364797
0.364805
0.364805
0.364813
0.364821
0.364829
0.364837
0.364837
0.364845
0.364853
0.364861
0.364869
0.364869
0.364878
0.364886
0.364894
0.364902
0.364902
0.36491
0.364919
0.364927
0.364935
0.364935
0.364944
0.364952
0.364961
0.364969
0.364969
0.364978
0.364986
0.364995
0.365003
0.365003
0.365012
0.365021
0.365029
0.365038
0.365038
0.365047
0.365055
0.365064
0.365073
0.365073
0.365082
0.365091
0.3651
0.365109
0.365109
0.365118
0.365127
0.365136
0.365145
0.365145
0.365154
0.365163
0.365172
0.365181
0.365181
0.365191
0.3652
0.365209
0.365218
0.365218
0.365228
0.365237
0.365246
0.365256
0.365256
0.365265
0.365275
0.365284
0.365294
0.365294
0.365303
0.365313
0.365323
0.365332
0.365332
0.365342
0.365352
0.365361
0.365371
0.365371
0.365381
0.365391
0.365401
0.36541
0.36541
0.36542
0.36543
0.36544
0.36545
0.36545
0.36546
0.36547
0.36548
0.365491
0.365491
0.365501
0.365511
0.365521
0.365531
0.365531
0.365542
0.365552
0.365562
0.365573
0.365573
0.365583
0.365593
0.365604
0.365614
0.365614
0.365625
0.365635
0.365646
0.365657
0.365657
0.365667
0.365678
0.365689
0.365699
0.365699
0.36571
0.365721
0.365732
0.365742
0.365742
0.365753
0.365764
0.365775
0.365786
0.365786
0.365797
0.365808
0.365819
0.36583
0.36583
0.365841
0.365852
0.365863
0.365875
0.365875
0.365886
0.365897
0.365908
0.36592
0.36592
0.365931
0.365942
0.365954
0.365965
0.365965
0.365977
0.365988
0.366
0.366011
0.366011
0.366023
0.366034
0.366046
0.366057
0.366057
0.366069
0.366081
0.366093
0.366104
0.366104
0.366116
0.366128
0.36614
0.366152
0.366152
0.366164
0.366176
0.366188
0.3662
0.3662
0.366212
0.366224
0.366236
0.366248
0.366248
0.36626
0.366272
0.366284
0.366297
0.366297
0.366309
0.366321
0.366334
0.366346
0.366346
0.366358
0.366371
0.366383
0.366396
0.366396
0.366408
0.366421
0.366433
0.366446
0.366446
0.366458
0.366471
0.366484
0.366497
0.366497
0.366509
0.366522
0.366535
0.366548
0.366548
0.366561
0.366573
0.366586
0.366599
0.366599
0.366612
0.366625
0.366638
0.366651
0.366651
0.366664
0.366678
0.366691
0.366704
0.366704
0.366717
0.36673
0.366744
0.366757
0.366757
0.36677
0.366784
0.366797
0.36681
0.36681
0.366824
0.366837
0.366851
0.366864
0.366864
0.366878
0.366892
0.366905
0.366919
0.366919
0.366932
0.366946
0.36696
0.366974
0.366974
0.366987
0.367001
0.367015
0.367029
0.367029
0.367043
0.367057
0.367071
0.367085
0.367085
0.367099
0.367113
0.367127
0.367141
0.367141
0.367155
0.36717
0.367184
0.367198
0.367198
0.367212
0.367227
0.367241
0.367255
0.367255
0.36727
0.367284
0.367298
0.367313
0.367313
0.367327
0.367342
0.367357
0.367371
0.367371
0.367386
0.3674
0.367415
0.36743
0.36743
0.367445
0.367459
0.367474
0.367489
0.367489
0.367504
0.367519
0.367534
0.367548
0.367548
0.367563
0.367578
0.367594
0.367609
0.367609
0.367624
0.367639
0.367654
0.367669
0.367669
0.367684
0.3677
0.367715
0.36773
0.36773
0.367745
0.367761
0.367776
0.367792
0.367792
0.367807
0.367823
0.367838
0.367854
0.367854
0.367869
0.367885
0.3679
0.367916
0.367916
0.367932
0.367947
0.367963
0.367979
0.367979
0.367995
0.36801
0.368026
0.368042
0.368042
0.368058
0.368074
0.36809
0.368106
0.368106
0.368122
0.368138
0.368154
0.36817
0.36817
0.368186
0.368203
0.368219
0.368235
0.368235
0.368251
0.368268
0.368284
0.3683
0.3683
0.368317
0.368333
0.36835
0.368366
0.368366
0.368383
0.368399
0.368416
0.368432
0.368432
0.368449
0.368465
0.368482
0.368499
0.368499
0.368516
0.368532
0.368549
0.368566
0.368566
0.368583
0.3686
0.368617
0.368634
0.368634
0.36865
0.368667
0.368685
0.368702
0.368702
0.368719
0.368736
0.368753
0.36877
0.36877
0.368787
0.368805
0.368822
0.368839
0.368839
0.368856
0.368874
0.368891
0.368909
0.368909
0.368926
0.368943
0.368961
0.368978
0.368978
0.368996
0.369014
0.369031
0.369049
0.369049
0.369067
0.369084
0.369102
0.36912
0.36912
0.369138
0.369155
0.369173
0.369191
0.369191
0.369209
0.369227
0.369245
0.369263
0.369263
0.369281
0.369299
0.369317
0.369335
0.369335
0.369353
0.369371
0.36939
0.369408
0.369408
0.369426
0.369444
0.369463
0.369481
0.369481
0.369499
0.369518
0.369536
0.369555
0.369555
0.369573
0.369592
0.36961
0.369629
0.369629
0.369648
0.369666
0.369685
0.369704
0.369704
0.369722
0.369741
0.36976
0.369779
0.369779
0.369797
0.369816
0.369835
0.369854
0.369854
0.369873
0.369892
0.369911
0.36993
0.36993
0.369949
0.369968
0.369988
0.370007
0.370007
0.370026
0.370045
0.370064
0.370084
0.370084
0.370103
0.370122
0.370142
0.370161
0.370161
0.370181
0.3702
0.370219
0.370239
0.370239
0.370259
0.370278
0.370298
0.370317
0.370317
0.370337
0.370357
0.370376
0.370396
0.370396
0.370416
0.370436
0.370456
0.370476
0.370476
0.370495
0.370515
0.370535
0.370555
0.370555
0.370575
0.370595
0.370615
0.370636
0.370636
0.370656
0.370676
0.370696
0.370716
0.370716
0.370737
0.370757
0.370777
0.370797
0.370797
0.370818
0.370838
0.370859
0.370879
0.370879
0.3709
0.37092
0.370941
0.370961
0.370961
0.370982
0.371002
0.371023
0.371044
0.371044
0.371065
0.371085
0.371106
0.371127
0.371127
0.371148
0.371169
0.371189
0.37121
0.37121
0.371231
0.371252
0.371273
0.371294
0.371294
0.371315
0.371337
0.371358
0.371379
0.371379
0.3714
0.371421
0.371442
0.371464
0.371464
0.371485
0.371506
0.371528
0.371549
0.371549
0.371571
0.371592
0.371613
0.371635
0.371635
0.371657
0.371678
0.3717
0.371721
0.371721
0.371743
0.371765
0.371786
0.371808
0.371808
0.37183
0.371852
0.371874
0.371895
0.371895
0.371917
0.371939
0.371961
0.371983
0.371983
0.372005
0.372027
0.372049
0.372071
0.372071
0.372093
0.372116
0.372138
0.37216
0.37216
0.372182
0.372205
0.372227
0.372249
0.372249
0.372271
0.372294
0.372316
0.372339
0.372339
0.372361
0.372384
0.372406
0.372429
0.372429
0.372451
0.372474
0.372497
0.372519
0.372519
0.372542
0.372565
0.372588
0.37261
0.37261
0.372633
0.372656
0.372679
0.372702
0.372702
0.372725
0.372748
0.372771
0.372794
0.372794
0.372817
0.37284
0.372863
0.372886
0.372886
0.372909
0.372933
0.372956
0.372979
0.372979
0.373002
0.373026
0.373049
0.373072
0.373072
0.373096
0.373119
0.373143
0.373166
0.373166
0.37319
0.373213
0.373237
0.373261
0.373261
0.373284
0.373308
0.373332
0.373355
0.373355
0.373379
0.373403
0.373427
0.37345
0.37345
0.373474
0.373498
0.373522
0.373546
0.373546
0.37357
0.373594
0.373618
0.373642
0.373642
0.373666
0.373691
0.373715
0.373739
0.373739
0.373763
0.373787
0.373812
0.373836
0.373836
0.37386
0.373885
0.373909
0.373934
0.373934
0.373958
0.373982
0.374007
0.374032
0.374032
0.374056
0.374081
0.374105
0.37413
0.37413
0.374155
0.374179
0.374204
0.374229
0.374229
0.374254
0.374279
0.374304
0.374328
0.374328
0.374353
0.374378
0.374403
0.374428
0.374428
0.374453
0.374478
0.374504
0.374529
0.374529
0.374554
0.374579
0.374604
0.374629
0.374629
0.374655
0.37468
0.374705
0.374731
0.374731
0.374756
0.374782
0.374807
0.374833
0.374833
0.374858
0.374884
0.374909
0.374935
0.374935
0.37496
0.374986
0.375012
0.375037
0.375037
0.375063
0.375089
0.375115
0.375141
0.375141
0.375166
0.375192
0.375218
0.375244
0.375244
0.37527
0.375296
0.375322
0.375348
0.375348
0.375374
0.3754
0.375427
0.375453
0.375453
0.375479
0.375505
0.375532
0.375558
0.375558
0.375584
0.375611
0.375637
0.375663
0.375663
0.37569
0.375716
0.375743
0.375769
0.375769
0.375796
0.375822
0.375849
0.375876
0.375876
0.375902
0.375929
0.375956
0.375983
0.375983
0.376009
0.376036
0.376063
0.37609
0.37609
0.376117
0.376144
0.376171
0.376198
0.376198
0.376225
0.376252
0.376279
0.376306
0.376306
0.376333
0.37636
0.376388
0.376415
0.376415
0.376442
0.376469
0.376497
0.376524
0.376524
0.376551
0.376579
0.376606
0.376634
0.376634
0.376661
0.376689
0.376716
0.376744
0.376744
0.376771
0.376799
0.376827
0.376854
0.376854
0.376882
0.37691
0.376938
0.376965
0.376965
0.376993
0.377021
0.377049
0.377077
0.377077
0.377105
0.377133
0.377161
0.377189
0.377189
0.377217
0.377245
0.377273
0.377301
0.377301
0.37733
0.377358
0.377386
0.377414
0.377414
0.377443
0.377471
0.377499
0.377528
0.377528
0.377556
0.377585
0.377613
0.377642
0.377642
0.37767
0.377699
0.377727
0.377756
0.377756
0.377785
0.377813
0.377842
0.377871
0.377871
0.3779
0.377928
0.377957
0.377986
0.377986
0.378015
0.378044
0.378073
0.378102
0.378102
0.378131
0.37816
0.378189
0.378218
0.378218
0.378247
0.378276
0.378305
0.378335
0.378335
0.378364
0.378393
0.378422
0.378452
0.378452
0.378481
0.378511
0.37854
0.378569
0.378569
0.378599
0.378628
0.378658
0.378687
0.378687
0.378717
0.378747
0.378776
0.378806
0.378806
0.378836
0.378865
0.378895
0.378925
0.378925
0.378955
0.378985
0.379014
0.379044
0.379044
0.379074
0.379104
0.379134
0.379164
0.379164
0.379194
0.379224
0.379255
0.379285
0.379285
0.379315
0.379345
0.379375
0.379406
0.379406
0.379436
0.379466
0.379496
0.379527
0.379527
0.379557
0.379588
0.379618
0.379649
0.379649
0.379679
0.37971
0.37974
0.379771
0.379771
0.379801
0.379832
0.379863
0.379894
0.379894
0.379924
0.379955
0.379986
0.380017
0.380017
0.380048
0.380078
0.380109
0.38014
0.38014
0.380171
0.380202
0.380233
0.380264
0.380264
0.380296
0.380327
0.380358
0.380389
0.380389
0.38042
0.380451
0.380483
0.380514
0.380514
0.380545
0.380577
0.380608
0.38064
0.38064
0.380671
0.380702
0.380734
0.380765
0.380765
0.380797
0.380829
0.38086
0.380892
0.380892
0.380924
0.380955
0.380987
0.381019
0.381019
0.381051
0.381082
0.381114
0.381146
0.381146
0.381178
0.38121
0.381242
0.381274
0.381274
0.381306
0.381338
0.38137
0.381402
0.381402
0.381434
0.381467
0.381499
0.381531
0.381531
0.381563
0.381595
0.381628
0.38166
0.38166
0.381693
0.381725
0.381757
0.38179
0.38179
0.381822
0.381855
0.381887
0.38192
0.38192
0.381953
0.381985
0.382018
0.382051
0.382051
0.382083
0.382116
0.382149
0.382182
0.382182
0.382214
0.382247
0.38228
0.382313
0.382313
0.382346
0.382379
0.382412
0.382445
0.382445
0.382478
0.382511
0.382544
0.382578
0.382578
0.382611
0.382644
0.382677
0.38271
0.38271
0.382744
0.382777
0.38281
0.382844
0.382844
0.382877
0.382911
0.382944
0.382978
0.382978
0.383011
0.383045
0.383078
0.383112
0.383112
0.383146
0.383179
0.383213
0.383247
0.383247
0.38328
0.383314
0.383348
0.383382
0.383382
0.383416
0.38345
0.383484
0.383518
0.383518
0.383552
0.383586
0.38362
0.383654
0.383654
0.383688
0.383722
0.383756
0.38379
0.38379
0.383825
0.383859
0.383893
0.383927
0.383927
0.383962
0.383996
0.384031
0.384065
0.384065
0.384099
0.384134
0.384168
0.384203
0.384203
0.384238
0.384272
0.384307
0.384342
0.384342
0.384376
0.384411
0.384446
0.38448
0.38448
0.384515
0.38455
0.384585
0.38462
0.38462
0.384655
0.38469
0.384725
0.38476
0.38476
0.384795
0.38483
0.384865
0.3849
0.3849
0.384935
0.38497
0.385006
0.385041
0.385041
0.385076
0.385111
0.385147
0.385182
0.385182
0.385217
0.385253
0.385288
0.385324
0.385324
0.385359
0.385395
0.38543
0.385466
0.385466
0.385502
0.385537
0.385573
0.385609
0.385609
0.385644
0.38568
0.385716
0.385752
0.385752
0.385787
0.385823
0.385859
0.385895
0.385895
0.385931
0.385967
0.386003
0.386039
0.386039
0.386075
0.386111
0.386148
0.386184
0.386184
0.38622
0.386256
0.386292
0.386329
0.386329
0.386365
0.386401
0.386438
0.386474
0.386474
0.38651
0.386547
0.386583
0.38662
0.38662
0.386656
0.386693
0.38673
0.386766
0.386766
0.386803
0.38684
0.386876
0.386913
0.386913
0.38695
0.386987
0.387023
0.38706
0.38706
0.387097
0.387134
0.387171
0.387208
0.387208
0.387245
0.387282
0.387319
0.387356
0.387356
0.387393
0.38743
0.387468
0.387505
0.387505
0.387542
0.387579
0.387617
0.387654
0.387654
0.387691
0.387729
0.387766
0.387803
0.387803
0.387841
0.387878
0.387916
0.387953
0.387953
0.387991
0.388029
0.388066
0.388104
0.388104
0.388142
0.388179
0.388217
0.388255
0.388255
0.388293
0.388331
0.388368
0.388406
0.388406
0.388444
0.388482
0.38852
0.388558
0.388558
0.388596
0.388634
0.388672
0.388711
0.388711
0.388749
0.388787
0.388825
0.388863
0.388863
0.388902
0.38894
0.388978
0.389017
0.389017
0.389055
0.389093
0.389132
0.38917
0.38917
0.389209
0.389247
0.389286
0.389324
0.389324
0.389363
0.389402
0.38944
0.389479
0.389479
0.389518
0.389557
0.389595
0.389634
0.389634
0.389673
0.389712
0.389751
0.38979
0.38979
0.389829
0.389868
0.389907
0.389946
0.389946
0.389985
0.390024
0.390063
0.390102
0.390102
0.390141
0.390181
0.39022
0.390259
0.390259
0.390298
0.390338
0.390377
0.390417
0.390417
0.390456
0.390495
0.390535
0.390574
0.390574
0.390614
0.390654
0.390693
0.390733
0.390733
0.390772
0.390812
0.390852
0.390892
0.390892
0.390931
0.390971
0.391011
0.391051
0.391051
0.391091
0.391131
0.391171
0.391211
0.391211
0.391251
0.391291
0.391331
0.391371
0.391371
0.391411
0.391451
0.391491
0.391531
0.391531
0.391572
0.391612
0.391652
0.391692
0.391692
0.391733
0.391773
0.391814
0.391854
0.391854
0.391894
0.391935
0.391975
0.392016
0.392016
0.392057
0.392097
0.392138
0.392178
0.392178
0.392219
0.39226
0.392301
0.392341
0.392341
0.392382
0.392423
0.392464
0.392505
0.392505
0.392546
0.392587
0.392628
0.392669
0.392669
0.39271
0.392751
0.392792
0.392833
0.392833
0.392874
0.392915
0.392956
0.392998
0.392998
0.393039
0.39308
0.393122
0.393163
0.393163
0.393204
0.393246
0.393287
0.393329
0.393329
0.39337
0.393412
0.393453
0.393495
0.393495
0.393536
0.393578
0.39362
0.393661
0.393661
0.393703
0.393745
0.393787
0.393828
0.393828
0.39387
0.393912
0.393954
0.393996
0.393996
0.394038
0.39408
0.394122
0.394164
0.394164
0.394206
0.394248
0.39429
0.394332
0.394332
0.394375
0.394417
0.394459
0.394501
0.394501
0.394544
0.394586
0.394628
0.394671
0.394671
0.394713
0.394755
0.394798
0.39484
0.39484
0.394883
0.394926
0.394968
0.395011
0.395011
0.395053
0.395096
0.395139
0.395181
0.395181
0.395224
0.395267
0.39531
0.395353
0.395353
0.395396
0.395438
0.395481
0.395524
0.395524
0.395567
0.39561
0.395653
0.395696
0.395696
0.39574
0.395783
0.395826
0.395869
0.395869
0.395912
0.395955
0.395999
0.396042
0.396042
0.396085
0.396129
0.396172
0.396216
0.396216
0.396259
0.396302
0.396346
0.39639
0.39639
0.396433
0.396477
0.39652
0.396564
0.396564
0.396608
0.396651
0.396695
0.396739
0.396739
0.396783
0.396826
0.39687
0.396914
0.396914
0.396958
0.397002
0.397046
0.39709
0.39709
0.397134
0.397178
0.397222
0.397266
0.397266
0.39731
0.397354
0.397399
0.397443
0.397443
0.397487
0.397531
0.397576
0.39762
0.39762
0.397664
0.397709
0.397753
0.397798
0.397798
0.397842
0.397887
0.397931
0.397976
0.397976
0.39802
0.398065
0.39811
0.398154
0.398154
0.398199
0.398244
0.398289
0.398333
0.398333
0.398378
0.398423
0.398468
0.398513
0.398513
0.398558
0.398603
0.398648
0.398693
0.398693
0.398738
0.398783
0.398828
0.398873
0.398873
0.398918
0.398963
0.399009
0.399054
0.399054
0.399099
0.399144
0.39919
0.399235
0.399235
0.399281
0.399326
0.399371
0.399417
0.399417
0.399462
0.399508
0.399554
0.399599
0.399599
0.399645
0.39969
0.399736
0.399782
0.399782
0.399828
0.399873
0.399919
0.399965
0.399965
0.400011
0.400057
0.400103
0.400149
0.400149
0.400194
0.40024
0.400287
0.400333
0.400333
0.400379
0.400425
0.400471
0.400517
0.400517
0.400563
0.400609
0.400656
0.400702
0.400702
0.400748
0.400795
0.400841
0.400887
0.400887
0.400934
0.40098
0.401027
0.401073
0.401073
0.40112
0.401166
0.401213
0.40126
0.40126
0.401306
0.401353
0.4014
0.401446
0.401446
0.401493
0.40154
0.401587
0.401634
0.401634
0.401681
0.401727
0.401774
0.401821
0.401821
0.401868
0.401915
0.401962
0.40201
0.40201
0.402057
0.402104
0.402151
0.402198
0.402198
0.402245
0.402293
0.40234
0.402387
0.402387
0.402435
0.402482
0.402529
0.402577
0.402577
0.402624
0.402672
0.402719
0.402767
0.402767
0.402814
0.402862
0.40291
0.402957
0.402957
0.403005
0.403053
0.4031
0.403148
0.403148
0.403196
0.403244
0.403292
0.403339
0.403339
0.403387
0.403435
0.403483
0.403531
0.403531
0.403579
0.403627
0.403675
0.403724
0.403724
0.403772
0.40382
0.403868
0.403916
0.403916
0.403965
0.404013
0.404061
0.404109
0.404109
0.404158
0.404206
0.404255
0.404303
0.404303
0.404352
0.4044
0.404449
0.404497
0.404497
0.404546
0.404594
0.404643
0.404692
0.404692
0.404741
0.404789
0.404838
0.404887
0.404887
0.404936
0.404984
0.405033
0.405082
0.405082
0.405131
0.40518
0.405229
0.405278
0.405278
0.405327
0.405376
0.405425
0.405475
0.405475
0.405524
0.405573
0.405622
0.405671
0.405671
0.405721
0.40577
0.405819
0.405869
0.405869
0.405918
0.405968
0.406017
0.406067
0.406067
0.406116
0.406166
0.406215
0.406265
0.406265
0.406314
0.406364
0.406414
0.406463
0.406463
0.406513
0.406563
0.406613
0.406663
0.406663
0.406712
0.406762
0.406812
0.406862
0.406862
0.406912
0.406962
0.407012
0.407062
0.407062
0.407112
0.407162
0.407212
0.407263
0.407263
0.407313
0.407363
0.407413
0.407464
0.407464
0.407514
0.407564
0.407615
0.407665
0.407665
0.407715
0.407766
0.407816
0.407867
0.407867
0.407917
0.407968
0.408019
0.408069
0.408069
0.40812
0.408171
0.408221
0.408272
0.408272
0.408323
0.408374
0.408424
0.408475
0.408475
0.408526
0.408577
0.408628
0.408679
0.408679
0.40873
0.408781
0.408832
0.408883
0.408883
0.408934
0.408985
0.409036
0.409088
0.409088
0.409139
0.40919
0.409241
0.409293
0.409293
0.409344
0.409395
0.409447
0.409498
0.409498
0.40955
0.409601
0.409653
0.409704
0.409704
0.409756
0.409807
0.409859
0.409911
0.409911
0.409962
0.410014
0.410066
0.410118
0.410118
0.410169
0.410221
0.410273
0.410325
0.410325
0.410377
0.410429
0.410481
0.410533
0.410533
0.410585
0.410637
0.410689
0.410741
0.410741
0.410793
0.410845
0.410897
0.41095
0.41095
0.411002
0.411054
0.411106
0.411159
0.411159
0.411211
0.411264
0.411316
0.411368
0.411368
0.411421
0.411473
0.411526
0.411578
0.411578
0.411631
0.411684
0.411736
0.411789
0.411789
0.411842
0.411894
0.411947
0.412
0.412
0.412053
0.412106
0.412159
0.412211
0.412211
0.412264
0.412317
0.41237
0.412423
0.412423
0.412476
0.412529
0.412583
0.412636
0.412636
0.412689
0.412742
0.412795
0.412848
0.412848
0.412902
0.412955
0.413008
0.413062
0.413062
0.413115
0.413169
0.413222
0.413275
0.413275
0.413329
0.413382
0.413436
0.41349
0.41349
0.413543
0.413597
0.413651
0.413704
0.413704
0.413758
0.413812
0.413866
0.413919
0.413919
0.413973
0.414027
0.414081
0.414135
0.414135
0.414189
0.414243
0.414297
0.414351
0.414351
0.414405
0.414459
0.414513
0.414567
0.414567
0.414622
0.414676
0.41473
0.414784
0.414784
0.414839
0.414893
0.414947
0.415002
0.415002
0.415056
0.41511
0.415165
0.415219
0.415219
0.415274
0.415328
0.415383
0.415438
0.415438
0.415492
0.415547
0.415602
0.415656
0.415656
0.415711
0.415766
0.415821
0.415876
0.415876
0.41593
0.415985
0.41604
0.416095
0.416095
0.41615
0.416205
0.41626
0.416315
0.416315
0.41637
0.416426
0.416481
0.416536
0.416536
0.416591
0.416646
0.416702
0.416757
0.416757
0.416812
0.416868
0.416923
0.416978
0.416978
0.417034
0.417089
0.417145
0.4172
0.4172
0.417256
0.417311
0.417367
0.417423
0.417423
0.417478
0.417534
0.41759
0.417645
0.417645
0.417701
0.417757
0.417813
0.417869
0.417869
0.417925
0.41798
0.418036
0.418092
0.418092
0.418148
0.418204
0.41826
0.418317
0.418317
0.418373
0.418429
0.418485
0.418541
0.418541
0.418597
0.418654
0.41871
0.418766
0.418766
0.418823
0.418879
0.418935
0.418992
0.418992
0.419048
0.419105
0.419161
0.419218
0.419218
0.419274
0.419331
0.419388
0.419444
0.419444
0.419501
0.419558
0.419614
0.419671
0.419671
0.419728
0.419785
0.419842
0.419899
0.419899
0.419955
0.420012
0.420069
0.420126
0.420126
0.420183
0.42024
0.420298
0.420355
0.420355
0.420412
0.420469
0.420526
0.420583
0.420583
0.420641
0.420698
0.420755
0.420813
0.420813
0.42087
0.420927
0.420985
0.421042
0.421042
0.4211
0.421157
0.421215
0.421272
0.421272
0.42133
0.421388
0.421445
0.421503
0.421503
0.421561
0.421618
0.421676
0.421734
0.421734
0.421792
0.42185
0.421907
0.421965
0.421965
0.422023
0.422081
0.422139
0.422197
0.422197
0.422255
0.422313
0.422371
0.42243
0.42243
0.422488
0.422546
0.422604
0.422662
0.422662
0.422721
0.422779
0.422837
0.422896
0.422896
0.422954
0.423012
0.423071
0.423129
0.423129
0.423188
0.423246
0.423305
0.423364
0.423364
0.423422
0.423481
0.423539
0.423598
0.423598
0.423657
0.423716
0.423774
0.423833
0.423833
0.423892
0.423951
0.42401
0.424069
0.424069
0.424128
0.424187
0.424246
0.424305
0.424305
0.424364
0.424423
0.424482
0.424541
0.424541
0.4246
0.42466
0.424719
0.424778
0.424778
0.424837
0.424897
0.424956
0.425016
0.425016
0.425075
0.425134
0.425194
0.425253
0.425253
0.425313
0.425372
0.425432
0.425492
0.425492
0.425551
0.425611
0.425671
0.42573
0.42573
0.42579
0.42585
0.42591
0.42597
0.42597
0.426029
0.426089
0.426149
0.426209
0.426209
0.426269
0.426329
0.426389
0.426449
0.426449
0.426509
0.426569
0.42663
0.42669
0.42669
0.42675
0.42681
0.42687
0.426931
0.426931
0.426991
0.427051
0.427112
0.427172
0.427172
0.427233
0.427293
0.427354
0.427414
0.427414
0.427475
0.427535
0.427596
0.427656
0.427656
0.427717
0.427778
0.427839
0.427899
0.427899
0.42796
0.428021
0.428082
0.428143
0.428143
0.428203
0.428264
0.428325
0.428386
0.428386
0.428447
0.428508
0.428569
0.42863
0.42863
0.428692
0.428753
0.428814
0.428875
0.428875
0.428936
0.428998
0.429059
0.42912
0.42912
0.429181
0.429243
0.429304
0.429366
0.429366
0.429427
0.429489
0.42955
0.429612
0.429612
0.429673
0.429735
0.429796
0.429858
0.429858
0.42992
0.429981
0.430043
0.430105
0.430105
0.430167
0.430229
0.43029
0.430352
0.430352
0.430414
0.430476
0.430538
0.4306
0.4306
0.430662
0.430724
0.430786
0.430848
0.430848
0.430911
0.430973
0.431035
0.431097
0.431097
0.431159
0.431222
0.431284
0.431346
0.431346
0.431409
0.431471
0.431533
0.431596
0.431596
0.431658
0.431721
0.431783
0.431846
0.431846
0.431909
0.431971
0.432034
0.432096
0.432096
0.432159
0.432222
0.432285
0.432347
0.432347
0.43241
0.432473
0.432536
0.432599
0.432599
0.432662
0.432725
0.432788
0.432851
0.432851
0.432914
0.432977
0.43304
0.433103
0.433103
0.433166
0.433229
0.433293
0.433356
0.433356
0.433419
0.433482
0.433546
0.433609
0.433609
0.433673
0.433736
0.433799
0.433863
0.433863
0.433926
0.43399
0.434053
0.434117
0.434117
0.434181
0.434244
0.434308
0.434372
0.434372
0.434435
0.434499
0.434563
0.434627
0.434627
0.434691
0.434754
0.434818
0.434882
0.434882
0.434946
0.43501
0.435074
0.435138
0.435138
0.435202
0.435266
0.43533
0.435395
0.435395
0.435459
0.435523
0.435587
0.435652
0.435652
0.435716
0.43578
0.435844
0.435909
0.435909
0.435973
0.436038
0.436102
0.436167
0.436167
0.436231
0.436296
0.43636
0.436425
0.436425
0.43649
0.436554
0.436619
0.436684
0.436684
0.436748
0.436813
0.436878
0.436943
0.436943
0.437008
0.437072
0.437137
0.437202
0.437202
0.437267
0.437332
0.437397
0.437462
0.437462
0.437527
0.437593
0.437658
0.437723
0.437723
0.437788
0.437853
0.437919
0.437984
0.437984
0.438049
0.438115
0.43818
0.438245
0.438245
0.438311
0.438376
0.438442
0.438507
0.438507
0.438573
0.438638
0.438704
0.43877
0.43877
0.438835
0.438901
0.438967
0.439032
0.439032
0.439098
0.439164
0.43923
0.439296
0.439296
0.439361
0.439427
0.439493
0.439559
0.439559
0.439625
0.439691
0.439757
0.439823
0.439823
0.439889
0.439956
0.440022
0.440088
0.440088
0.440154
0.44022
0.440287
0.440353
0.440353
0.440419
0.440486
0.440552
0.440619
0.440619
0.440685
0.440751
0.440818
0.440885
0.440885
0.440951
0.441018
0.441084
0.441151
0.441151
0.441218
0.441284
0.441351
0.441418
0.441418
0.441485
0.441551
0.441618
0.441685
0.441685
0.441752
0.441819
0.441886
0.441953
0.441953
0.44202
0.442087
0.442154
0.442221
0.442221
0.442288
0.442355
0.442423
0.44249
0.44249
0.442557
0.442624
0.442692
0.442759
0.442759
0.442826
0.442894
0.442961
0.443029
0.443029
0.443096
0.443164
0.443231
0.443299
0.443299
0.443366
0.443434
0.443502
0.443569
0.443569
0.443637
0.443705
0.443772
0.44384
0.44384
0.443908
0.443976
0.444044
0.444112
0.444112
0.444179
0.444247
0.444315
0.444383
0.444383
0.444451
0.44452
0.444588
0.444656
0.444656
0.444724
0.444792
0.44486
0.444929
0.444929
0.444997
0.445065
0.445133
0.445202
0.445202
0.44527
0.445339
0.445407
0.445475
0.445475
0.445544
0.445613
0.445681
0.44575
0.44575
0.445818
0.445887
0.445956
0.446024
0.446024
0.446093
0.446162
0.44623
0.446299
0.446299
0.446368
0.446437
0.446506
0.446575
0.446575
0.446644
0.446713
0.446782
0.446851
0.446851
0.44692
0.446989
0.447058
0.447127
0.447127
0.447196
0.447266
0.447335
0.447404
0.447404
0.447473
0.447543
0.447612
0.447681
0.447681
0.447751
0.44782
0.44789
0.447959
0.447959
0.448029
0.448098
0.448168
0.448237
0.448237
0.448307
0.448377
0.448446
0.448516
0.448516
0.448586
0.448656
0.448725
0.448795
0.448795
0.448865
0.448935
0.449005
0.449075
0.449075
0.449145
0.449215
0.449285
0.449355
0.449355
0.449425
0.449495
0.449565
0.449635
0.449635
0.449706
0.449776
0.449846
0.449916
0.449916
0.449987
0.450057
0.450128
0.450198
0.450198
0.450268
0.450339
0.450409
0.45048
0.45048
0.45055
0.450621
0.450692
0.450762
0.450762
0.450833
0.450903
0.450974
0.451045
0.451045
0.451116
0.451186
0.451257
0.451328
0.451328
0.451399
0.45147
0.451541
0.451612
0.451612
0.451683
0.451754
0.451825
0.451896
0.451896
0.451967
0.452038
0.452109
0.452181
0.452181
0.452252
0.452323
0.452394
0.452466
0.452466
0.452537
0.452608
0.45268
0.452751
0.452751
0.452823
0.452894
0.452966
0.453037
0.453037
0.453109
0.45318
0.453252
0.453324
0.453324
0.453395
0.453467
0.453539
0.453611
0.453611
0.453682
0.453754
0.453826
0.453898
0.453898
0.45397
0.454042
0.454114
0.454186
0.454186
0.454258
0.45433
0.454402
0.454474
0.454474
0.454546
0.454618
0.454691
0.454763
0.454763
0.454835
0.454907
0.45498
0.455052
0.455052
0.455124
0.455197
0.455269
0.455342
0.455342
0.455414
0.455487
0.455559
0.455632
0.455632
0.455704
0.455777
0.45585
0.455922
0.455922
0.455995
0.456068
0.45614
0.456213
0.456213
0.456286
0.456359
0.456432
0.456505
0.456505
0.456578
0.456651
0.456724
0.456797
0.456797
0.45687
0.456943
0.457016
0.457089
0.457089
0.457162
0.457235
0.457309
0.457382
0.457382
0.457455
0.457528
0.457602
0.457675
0.457675
0.457749
0.457822
0.457895
0.457969
0.457969
0.458042
0.458116
0.45819
0.458263
0.458263
0.458337
0.45841
0.458484
0.458558
0.458558
0.458632
0.458705
0.458779
0.458853
0.458853
0.458927
0.459001
0.459075
0.459148
0.459148
0.459222
0.459296
0.45937
0.459444
0.459444
0.459519
0.459593
0.459667
0.459741
0.459741
0.459815
0.459889
0.459964
0.460038
0.460038
0.460112
0.460187
0.460261
0.460335
0.460335
0.46041
0.460484
0.460559
0.460633
0.460633
0.460708
0.460782
0.460857
0.460932
0.460932
0.461006
0.461081
0.461156
0.46123
0.46123
0.461305
0.46138
0.461455
0.46153
0.46153
0.461604
0.461679
0.461754
0.461829
0.461829
0.461904
0.461979
0.462054
0.462129
0.462129
0.462205
0.46228
0.462355
0.46243
0.46243
0.462505
0.46258
0.462656
0.462731
0.462731
0.462806
0.462882
0.462957
0.463033
0.463033
0.463108
0.463184
0.463259
0.463335
0.463335
0.46341
0.463486
0.463561
0.463637
0.463637
0.463713
0.463788
0.463864
0.46394
0.46394
0.464016
0.464092
0.464167
0.464243
0.464243
0.464319
0.464395
0.464471
0.464547
0.464547
0.464623
0.464699
0.464775
0.464851
0.464851
0.464928
0.465004
0.46508
0.465156
0.465156
0.465232
0.465309
0.465385
0.465461
0.465461
0.465538
0.465614
0.465691
0.465767
0.465767
0.465843
0.46592
0.465997
0.466073
0.466073
0.46615
0.466226
0.466303
0.46638
0.46638
0.466456
0.466533
0.46661
0.466687
0.466687
0.466764
0.46684
0.466917
0.466994
0.466994
0.467071
0.467148
0.467225
0.467302
0.467302
0.467379
0.467456
0.467533
0.467611
0.467611
0.467688
0.467765
0.467842
0.467919
0.467919