<?xml version="1.0"?>
<VTKFile type="UnstructuredGrid" version="0.1" byte_order="LittleEndian">
<UnstructuredGrid>
<Piece NumberOfPoints="5000" NumberOfCells="4000">
<PointData Scalars="Reaction 0">
<DataArray type="Float32" Name="Reaction 0" format="ascii">
0.566586
0.566586
0.566586
0.566586
0.566586
0.566586
0.566586
0.566586
0.566586
0.566586
0.566586
0.566586
0.566586
0.566586
0.566586
0.566586
0.566586
0.566586
0.566586
0.566586
0.566586
0.566586
0.566586
0.566586
0.566586
0.566586
0.566586
0.566586
0.566586
0.566586
0.566586
0.566586
0.566586
0.566586
0.566586
0.566586
0.566586
0.566586
0.566586
0.566586
0.566586
0.566586
0.566586
0.566586
0.566586
0.566586
0.566586
0.566586
0.566586
0.566586
0.566586
0.566586
0.566586
0.566587
0.566587
0.566587
0.566587
0.566587
0.566587
0.566587
0.566587
0.566587
0.566587
0.566587
0.566587
0.566587
0.566587
0.566587
0.566587
0.566587
0.566587
0.566587
0.566587
0.566587
0.566587
0.566587
0.566588
0.566588
0.566588
0.566588
0.566588
0.566588
0.566588
0.566588
0.566588
0.566588
0.566588
0.566588
0.566588
0.566588
0.566588
0.566588
0.566588
0.566589
0.566589
0.566589
0.566589
0.566589
0.566589
0.566589
0.566589
0.566589
0.566589
0.566589
0.566589
0.566589
0.566589
0.566589
0.56659
0.56659
0.56659
0.56659
0.56659
0.56659
0.56659
0.56659
0.56659
0.56659
0.56659
0.56659
0.56659
0.566591
0.566591
0.566591
0.566591
0.566591
0.566591
0.566591
0.566591
0.566591
0.566591
0.566591
0.566592
0.566592
0.566592
0.566592
0.566592
0.566592
0.566592
0.566592
0.566592
0.566592
0.566592
0.566593
0.566593
0.566593
0.566593
0.566593
0.566593
0.566593
0.566593
0.566593
0.566593
0.566594
0.566594
0.566594
0.566594
0.566594
0.566594
0.566594
0.566594
0.566594
0.566595
0.566595
0.566595
0.566595
0.566595
0.566595
0.566595
0.566595
0.566595
0.566595
0.566596
0.566596
0.566596
0.566596
0.566596
0.566596
0.566596
0.566597
0.566597
0.566597
0.566597
0.566597
0.566597
0.566597
0.566597
0.566597
0.566598
0.566598
0.566598
0.566598
0.566598
0.566598
0.566598
0.566598
0.566599
0.566599
0.566599
0.566599
0.566599
0.566599
0.566599
0.5666
0.5666
0.5666
0.5666
0.5666
0.5666
0.566601
0.566601
0.566601
0.566601
0.566601
0.566601
0.566601
0.566601
0.566602
0.566602
0.566602
0.566602
0.566602
0.566602
0.566603
0.566603
0.566603
0.566603
0.566603
0.566603
0.566604
0.566604
0.566604
0.566604
0.566604
0.566604
0.566604
0.566604
0.566605
0.566605
0.566605
0.566605
0.566605
0.566606
0.566606
0.566606
0.566606
0.566606
0.566606
0.566607
0.566607
0.566607
0.566607
0.566607
0.566607
0.566608
0.566608
0.566608
0.566608
0.566608
0.566609
0.566609
0.566609
0.566609
0.566609
0.566609
0.566609
0.56661
0.56661
0.56661
0.56661
0.56661
0.566611
0.566611
0.566611
0.566611
0.566611
0.566611
0.566612
0.566612
0.566612
0.566612
0.566612
0.566613
0.566613
0.566613
0.566613
0.566613
0.566614
0.566614
0.566614
0.566614
0.566614
0.566615
0.566615
0.566615
0.566615
0.566615
0.566616
0.566616
0.566616
0.566616
0.566616
0.566617
0.566617
0.566617
0.566617
0.566617
0.566618
0.566618
0.566618
0.566618
0.566618
0.566619
0.566619
0.566619
0.566619
0.56662
0.56662
0.56662
0.56662
0.56662
0.566621
0.566621
0.566621
0.566621
0.566621
0.566622
0.566622
0.566622
0.566623
0.566623
0.566623
0.566623
0.566623
0.566624
0.566624
0.566624
0.566624
0.566625
0.566625
0.566625
0.566625
0.566625
0.566626
0.566626
0.566626
0.566626
0.566627
0.566627
0.566627
0.566627
0.566628
0.566628
0.566628
0.566628
0.566628
0.566629
0.566629
0.566629
0.56663
0.56663
0.56663
0.56663
0.566631
0.566631
0.566631
0.566631
0.566631
0.566632
0.566632
0.566632
0.566632
0.566633
0.566633
0.566633
0.566633
0.566634
0.566634
0.566634
0.566635
0.566635
0.566635
0.566635
0.566636
0.566636
0.566636
0.566636
0.566637
0.566637
0.566637
0.566637
0.566638
0.566638
0.566638
0.566639
0.566639
0.566639
0.566639
0.56664
0.56664
0.56664
0.56664
0.566641
0.566641
0.566641
0.566641
0.566642
0.566642
0.566643
0.566643
0.566643
0.566643
0.566644
0.566644
0.566644
0.566644
0.566645
0.566645
0.566645
0.566646
0.566646
0.566646
0.566646
0.566647
0.566647
0.566647
0.566648
0.566648
0.566648
0.566649
0.566649
0.566649
0.566649
0.56665
0.56665
0.56665
0.56665
0.566651
0.566651
0.566652
0.566652
0.566652
0.566652
0.566653
0.566653
0.566653
0.566654
0.566654
0.566654
0.566655
0.566655
0.566655
0.566655
0.566656
0.566656
0.566656
0.566657
0.566657
0.566657
0.566658
0.566658
0.566658
0.566659
0.566659
0.566659
0.566659
0.56666
0.56666
0.566661
0.566661
0.566661
0.566661
0.566662
0.566662
0.566663
0.566663
0.566663
0.566663
0.566664
0.566664
0.566664
0.566665
0.566665
0.566666
0.566666
0.566666
0.566666
0.566667
0.566667
0.566668
0.566668
0.566668
0.566669
0.566669
0.566669
0.566669
0.56667
0.56667
0.566671
0.566671
0.566671
0.566672
0.566672
0.566672
0.566673
0.566673
0.566673
0.566674
0.566674
0.566675
0.566675
0.566675
0.566675
0.566676
0.566676
0.566676
0.566677
0.566677
0.566678
0.566678
0.566678
0.566679
0.566679
0.566679
0.56668
0.56668
0.56668
0.566681
0.566681
0.566682
0.566682
0.566682
0.566683
0.566683
0.566684
0.566684
0.566684
0.566685
0.566685
0.566685
0.566685
0.566686
0.566686
0.566687
0.566687
0.566687
0.566688
0.566688
0.566689
0.566689
0.566689
0.56669
0.56669
0.566691
0.566691
0.566691
0.566692
0.566692
0.566693
0.566693
0.566693
0.566694
0.566694
0.566695
0.566695
0.566695
0.566696
0.566696
0.566697
0.566697
0.566697
0.566698
0.566698
0.566699
0.566699
0.566699
0.5667
0.5667
0.566701
0.566701
0.566701
0.566702
0.566702
0.566703
0.566703
0.566703
0.566704
0.566704
0.566705
0.566705
0.566705
0.566706
0.566706
0.566707
0.566707
0.566707
0.566708
0.566708
0.566709
0.566709
0.566709
0.56671
0.56671
0.566711
0.566711
0.566711
0.566712
0.566712
0.566713
0.566714
0.566714
0.566714
0.566715
0.566715
0.566716
0.566716
0.566716
0.566717
0.566717
0.566718
0.566718
0.566718
0.566719
0.566719
0.56672
0.56672
0.566721
0.566721
0.566722
0.566722
0.566722
0.566723
0.566723
0.566724
0.566724
0.566724
0.566725
0.566726
0.566726
0.566727
0.566727
0.566727
0.566728
0.566728
0.566729
0.566729
0.566729
0.56673
0.566731
0.566731
0.566731
0.566732
0.566732
0.566733
0.566733
0.566733
0.566734
0.566735
0.566735
0.566736
0.566736
0.566736
0.566737
0.566738
0.566738
0.566738
0.566739
0.566739
0.56674
0.56674
0.56674
0.566741
0.566742
0.566742
0.566743
0.566743
0.566743
0.566744
0.566745
0.566745
0.566745
0.566746
0.566746
0.566747
0.566748
0.566748
0.566748
0.566749
0.566749
0.56675
0.56675
0.566751
0.566751
0.566752
0.566752
0.566752
0.566753
0.566754
0.566754
0.566755
0.566755
0.566756
0.566756
0.566757
0.566757
0.566757
0.566758
0.566759
0.566759
0.56676
0.56676
0.566761
0.566761
0.566762
0.566762
0.566762
0.566763
0.566764
0.566764
0.566765
0.566765
0.566766
0.566766
0.566767
0.566768
0.566768
0.566768
0.566769
0.566769
0.56677
0.56677
0.566771
0.566771
0.566772
0.566773
0.566773
0.566773
0.566774
0.566775
0.566775
0.566775
0.566776
0.566777
0.566777
0.566778
0.566778
0.566779
0.566779
0.56678
0.566781
0.566781
0.566781
0.566782
0.566783
0.566783
0.566783
0.566784
0.566785
0.566785
0.566786
0.566786
0.566787
0.566787
0.566788
0.566789
0.566789
0.566789
0.56679
0.566791
0.566791
0.566791
0.566792
0.566793
0.566793
0.566794
0.566794
0.566795
0.566796
0.566796
0.566797
0.566797
0.566798
0.566798
0.566799
0.5668
0.5668
0.5668
0.566801
0.566802
0.566802
0.566802
0.566803
0.566804
0.566805
0.566805
0.566805
0.566806
0.566807
0.566807
0.566808
0.566808
0.566809
0.56681
0.56681
0.566811
0.566811
0.566812
0.566812
0.566813
0.566814
0.566814
0.566815
0.566815
0.566816
0.566817
0.566817
0.566818
0.566818
0.566819
0.56682
0.56682
0.566821
0.566821
0.566822
0.566823
0.566823
0.566823
0.566824
0.566825
0.566826
0.566826
0.566826
0.566827
0.566828
0.566829
0.566829
0.566829
0.56683
0.566831
0.566832
0.566832
0.566832
0.566833
0.566834
0.566835
0.566835
0.566836
0.566836
0.566837
0.566838
0.566838
0.566839
0.566839
0.56684
0.566841
0.566841
0.566842
0.566842
0.566843
0.566844
0.566844
0.566845
0.566846
0.566846
0.566847
0.566847
0.566848
0.566849
0.566849
0.56685
0.56685
0.566851
0.566852
0.566853
0.566853
0.566853
0.566854
0.566855
0.566856
0.566857
0.566857
0.566857
0.566858
0.566859
0.56686
0.56686
0.566861
0.566861
0.566862
0.566863
0.566863
0.566864
0.566865
0.566865
0.566866
0.566866
0.566867
0.566868
0.566869
0.566869
0.566869
0.56687
0.566871
0.566872
0.566873
0.566873
0.566874
0.566874
0.566875
0.566876
0.566876
0.566877
0.566878
0.566878
0.566879
0.566879
0.56688
0.566881
0.566882
0.566883
0.566883
0.566883
0.566884
0.566885
0.566886
0.566886
0.566887
0.566888
0.566889
0.566889
0.566889
0.56689
0.566891
0.566892
0.566893
0.566893
0.566894
0.566895
0.566895
0.566896
0.566896
0.566897
0.566898
0.566899
0.5669
0.5669
0.566901
0.566901
0.566902
0.566903
0.566903
0.566904
0.566905
0.566906
0.566907
0.566907
0.566907
0.566908
0.566909
0.56691
0.56691
0.566911
0.566912
0.566913
0.566914
0.566914
0.566915
0.566915
0.566916
0.566917
0.566917
0.566918
0.566919
0.56692
0.566921
0.566921
0.566922
0.566923
0.566923
0.566924
0.566924
0.566925
0.566926
0.566927
0.566928
0.566928
0.566929
0.56693
0.566931
0.566932
0.566932
0.566933
0.566933
0.566934
0.566935
0.566935
0.566936
0.566937
0.566938
0.566939
0.566939
0.56694
0.566941
0.566942
0.566943
0.566943
0.566944
0.566944
0.566945
0.566946
0.566946
0.566947
0.566948
0.566949
0.56695
0.56695
0.566951
0.566952
0.566953
0.566954
0.566954
0.566955
0.566956
0.566957
0.566958
0.566958
0.566959
0.56696
0.566961
0.566961
0.566961
0.566962
0.566963
0.566964
0.566965
0.566965
0.566966
0.566967
0.566968
0.566969
0.566969
0.56697
0.566971
0.566972
0.566973
0.566973
0.566974
0.566975
0.566976
0.566977
0.566977
0.566978
0.566979
0.56698
0.566981
0.566981
0.566982
0.566983
0.566984
0.566985
0.566985
0.566986
0.566987
0.566988
0.566989
0.566989
0.56699
0.566991
0.566992
0.566993
0.566993
0.566994
0.566995
0.566996
0.566997
0.566997
0.566998
0.566999
0.567
0.567001
0.567001
0.567002
0.567003
0.567004
0.567005
0.567005
0.567006
0.567007
0.567008
0.567009
0.567009
0.56701
0.567011
0.567012
0.567013
0.567013
0.567014
0.567015
0.567016
0.567017
0.567017
0.567018
0.567019
0.56702
0.567021
0.567021
0.567022
0.567023
0.567024
0.567025
0.567025
0.567026
0.567028
0.567029
0.56703
0.56703
0.567031
0.567032
0.567033
0.567034
0.567034
0.567035
0.567036
0.567037
0.567038
0.567038
0.567039
0.56704
0.567041
0.567042
0.567042
0.567043
0.567044
0.567046
0.567047
0.567047
0.567048
0.567049
0.56705
0.567051
0.567051
0.567052
0.567053
0.567054
0.567055
0.567055
0.567056
0.567057
0.567058
0.56706
0.56706
0.567061
0.567062
0.567063
0.567064
0.567064
0.567065
0.567066
0.567067
0.567068
0.567068
0.567069
0.567071
0.567072
0.567073
0.567073
0.567074
0.567075
0.567076
0.567077
0.567077
0.567078
0.567079
0.567081
0.567082
0.567082
0.567083
0.567084
0.567085
0.567086
0.567086
0.567087
0.567088
0.56709
0.567091
0.567091
0.567092
0.567093
0.567094
0.567095
0.567095
0.567096
0.567098
0.567099
0.5671
0.5671
0.567101
0.567102
0.567103
0.567104
0.567104
0.567106
0.567107
0.567108
0.567109
0.567109
0.56711
0.567111
0.567112
0.567114
0.567114
0.567115
0.567116
0.567117
0.567118
0.567118
0.567119
0.567121
0.567122
0.567123
0.567123
0.567124
0.567125
0.567127
0.567128
0.567128
0.567129
0.56713
0.567131
0.567132
0.567132
0.567134
0.567135
0.567136
0.567137
0.567137
0.567138
0.56714
0.567141
0.567142
0.567142
0.567143
0.567144
0.567146
0.567147
0.567147
0.567148
0.567149
0.56715
0.567152
0.567152
0.567153
0.567154
0.567155
0.567156
0.567156
0.567158
0.567159
0.56716
0.567161
0.567161
0.567163
0.567164
0.567165
0.567166
0.567166
0.567167
0.567169
0.56717
0.567171
0.567171
0.567172
0.567174
0.567175
0.567176
0.567176
0.567177
0.567179
0.56718
0.567181
0.567181
0.567182
0.567183
0.567185
0.567186
0.567186
0.567187
0.567188
0.56719
0.567191
0.567191
0.567192
0.567194
0.567195
0.567196
0.567196
0.567197
0.567199
0.5672
0.567201
0.567201
0.567203
0.567204
0.567205
0.567206
0.567206
0.567208
0.567209
0.56721
0.567212
0.567212
0.567213
0.567214
0.567215
0.567217
0.567217
0.567218
0.567219
0.567221
0.567222
0.567222
0.567223
0.567224
0.567226
0.567227
0.567227
0.567228
0.56723
0.567231
0.567232
0.567232
0.567234
0.567235
0.567236
0.567238
0.567238
0.567239
0.56724
0.567242
0.567243
0.567243
0.567244
0.567246
0.567247
0.567248
0.567248
0.56725
0.567251
0.567252
0.567254
0.567254
0.567255
0.567256
0.567258
0.567259
0.567259
0.56726
0.567262
0.567263
0.567264
0.567264
0.567266
0.567267
0.567268
0.56727
0.56727
0.567271
0.567272
0.567274
0.567275
0.567275
0.567277
0.567278
0.567279
0.567281
0.567281
0.567282
0.567283
0.567285
0.567286
0.567286
0.567287
0.567289
0.56729
0.567292
0.567292
0.567293
0.567294
0.567296
0.567297
0.567297
0.567299
0.5673
0.567301
0.567303
0.567303
0.567304
0.567306
0.567307
0.567308
0.567308
0.56731
0.567311
0.567313
0.567314
0.567314
0.567315
0.567317
0.567318
0.56732
0.56732
0.567321
0.567323
0.567324
0.567325
0.567325
0.567327
0.567328
0.56733
0.567331
0.567331
0.567333
0.567334
0.567335
0.567337
0.567337
0.567338
0.56734
0.567341
0.567343
0.567343
0.567344
0.567345
0.567347
0.567348
0.567348
0.56735
0.567351
0.567353
0.567354
0.567354
0.567356
0.567357
0.567359
0.56736
0.56736
0.567362
0.567363
0.567364
0.567366
0.567366
0.567367
0.567369
0.56737
0.567372
0.567372
0.567373
0.567375
0.567376
0.567378
0.567378
0.567379
0.567381
0.567382
0.567384
0.567384
0.567385
0.567387
0.567388
0.56739
0.56739
0.567391
0.567393
0.567394
0.567396
0.567396
0.567397
0.567399
0.5674
0.567402
0.567402
0.567403
0.567405
0.567406
0.567408
0.567408
0.567409
0.567411
0.567412
0.567414
0.567414
0.567416
0.567417
0.567419
0.56742
0.56742
0.567422
0.567423
0.567425
0.567426
0.567426
0.567428
0.567429
0.567431
0.567432
0.567432
0.567434
0.567436
0.567437
0.567439
0.567439
0.56744
0.567442
0.567443
0.567445
0.567445
0.567447
0.567448
0.56745
0.567451
0.567451
0.567453
0.567454
0.567456
0.567458
0.567458
0.567459
0.567461
0.567462
0.567464
0.567464
0.567465
0.567467
0.567469
0.56747
0.56747
0.567472
0.567473
0.567475
0.567477
0.567477
0.567478
0.56748
0.567481
0.567483
0.567483
0.567485
0.567486
0.567488
0.56749
0.56749
0.567491
0.567493
0.567494
0.567496
0.567496
0.567498
0.567499
0.567501
0.567503
0.567503
0.567504
0.567506
0.567507
0.567509
0.567509
0.567511
0.567512
0.567514
0.567516
0.567516
0.567517
0.567519
0.567521
0.567522
0.567522
0.567524
0.567526
0.567527
0.567529
0.567529
0.567531
0.567532
0.567534
0.567536
0.567536
0.567537
0.567539
0.567541
0.567542
0.567542
0.567544
0.567546
0.567547
0.567549
0.567549
0.567551
0.567552
0.567554
0.567556
0.567556
0.567557
0.567559
0.567561
0.567563
0.567563
0.567564
0.567566
0.567568
0.567569
0.567569
0.567571
0.567573
0.567575
0.567576
0.567576
0.567578
0.56758
0.567581
0.567583
0.567583
0.567585
0.567587
0.567588
0.56759
0.56759
0.567592
0.567593
0.567595
0.567597
0.567597
0.567599
0.5676
0.567602
0.567604
0.567604
0.567606
0.567607
0.567609
0.567611
0.567611
0.567613
0.567614
0.567616
0.567618
0.567618
0.56762
0.567622
0.567623
0.567625
0.567625
0.567627
0.567629
0.56763
0.567632
0.567632
0.567634
0.567636
0.567638
0.567639
0.567639
0.567641
0.567643
0.567645
0.567647
0.567647
0.567648
0.56765
0.567652
0.567654
0.567654
0.567656
0.567657
0.567659
0.567661
0.567661
0.567663
0.567665
0.567666
0.567668
0.567668
0.56767
0.567672
0.567674
0.567676
0.567676
0.567677
0.567679
0.567681
0.567683
0.567683
0.567685
0.567687
0.567688
0.56769
0.56769
0.567692
0.567694
0.567696
0.567698
0.567698
0.5677
0.567701
0.567703
0.567705
0.567705
0.567707
0.567709
0.567711
0.567713
0.567713
0.567714
0.567716
0.567718
0.56772
0.56772
0.567722
0.567724
0.567726
0.567728
0.567728
0.56773
0.567731
0.567733
0.567735
0.567735
0.567737
0.567739
0.567741
0.567743
0.567743
0.567745
0.567747
0.567749
0.56775
0.56775
0.567752
0.567754
0.567756
0.567758
0.567758
0.56776
0.567762
0.567764
0.567766
0.567766
0.567768
0.56777
0.567772
0.567774
0.567774
0.567775
0.567777
0.567779
0.567781
0.567781
0.567783
0.567785
0.567787
0.567789
0.567789
0.567791
0.567793
0.567795
0.567797
0.567797
0.567799
0.567801
0.567803
0.567805
0.567805
0.567807
0.567809
0.567811
0.567813
0.567813
0.567815
0.567817
0.567819
0.567821
0.567821
0.567823
0.567825
0.567827
0.567828
0.567828
0.56783
0.567832
0.567834
0.567837
0.567837
0.567839
0.567841
0.567843
0.567845
0.567845
0.567847
0.567849
0.567851
0.567853
0.567853
0.567855
0.567857
0.567859
0.567861
0.567861
0.567863
0.567865
0.567867
0.567869
0.567869
0.567871
0.567873
0.567875
0.567877
0.567877
0.567879
0.567882
0.567884
0.567886
0.567886
0.567888
0.56789
0.567892
0.567894
0.567894
0.567896
0.567898
0.5679
0.567902
0.567902
0.567904
0.567906
0.567908
0.567911
0.567911
0.567913
0.567915
0.567917
0.567919
0.567919
0.567921
0.567923
0.567925
0.567927
0.567927
0.567929
0.567932
0.567934
0.567936
0.567936
0.567938
0.56794
0.567942
0.567944
0.567944
0.567946
0.567949
0.567951
0.567953
0.567953
0.567955
0.567957
0.567959
0.567961
0.567961
0.567964
0.567966
0.567968
0.56797
0.56797
0.567972
0.567974
0.567977
0.567979
0.567979
0.567981
0.567983
0.567985
0.567987
0.567987
0.56799
0.567992
0.567994
0.567996
0.567996
0.567998
0.568
0.568003
0.568005
0.568005
0.568007
0.568009
0.568011
0.568014
0.568014
0.568016
0.568018
0.56802
0.568022
0.568022
0.568025
0.568027
0.568029
0.568031
0.568031
0.568034
0.568036
0.568038
0.56804
0.56804
0.568043
0.568045
0.568047
0.568049
0.568049
0.568051
0.568054
0.568056
0.568058
0.568058
0.56806
0.568063
0.568065
0.568067
0.568067
0.568069
0.568072
0.568074
0.568076
0.568076
0.568078
0.568081
0.568083
0.568085
0.568085
0.568088
0.56809
0.568092
0.568095
0.568095
0.568097
0.568099
0.568101
0.568104
0.568104
0.568106
0.568108
0.568111
0.568113
0.568113
0.568115
0.568118
0.56812
0.568122
0.568122
0.568125
0.568127
0.568129
0.568132
0.568132
0.568134
0.568136
0.568139
0.568141
0.568141
0.568143
0.568146
0.568148
0.56815
0.56815
0.568153
0.568155
0.568157
0.56816
0.56816
0.568162
0.568165
0.568167
0.568169
0.568169
0.568172
0.568174
0.568176
0.568179
0.568179
0.568181
0.568184
0.568186
0.568188
0.568188
0.568191
0.568193
0.568196
0.568198
0.568198
0.5682
0.568203
0.568205
0.568208
0.568208
0.56821
0.568213
0.568215
0.568217
0.568217
0.56822
0.568222
0.568225
0.568227
0.568227
0.56823
0.568232
0.568234
0.568237
0.568237
0.568239
0.568242
0.568244
0.568247
0.568247
0.568249
0.568252
0.568254
0.568257
0.568257
0.568259
0.568261
0.568264
0.568266
0.568266
0.568269
0.568271
0.568274
0.568276
0.568276
0.568279
0.568281
0.568284
0.568286
0.568286
0.568289
0.568291
0.568294
0.568296
0.568296
0.568299
0.568301
0.568304
0.568306
0.568306
0.568309
0.568311
0.568314
0.568316
0.568316
0.568319
0.568321
0.568324
0.568326
0.568326
0.568329
0.568332
0.568334
0.568337
0.568337
0.568339
0.568342
0.568345
0.568347
0.568347
0.56835
0.568352
0.568355
0.568358
0.568358
0.56836
0.568363
0.568365
0.568368
0.568368
0.56837
0.568373
0.568376
0.568378
0.568378
0.568381
0.568384
0.568386
0.568389
0.568389
0.568391
0.568394
0.568397
0.568399
0.568399
0.568402
0.568404
0.568407
0.56841
0.56841
0.568412
0.568415
0.568418
0.56842
0.56842
0.568423
0.568426
0.568428
0.568431
0.568431
0.568434
0.568436
0.568439
0.568442
0.568442
0.568444
0.568447
0.56845
0.568452
0.568452
0.568455
0.568458
0.56846
0.568463
0.568463
0.568466
0.568468
0.568471
0.568474
0.568474
0.568477
0.568479
0.568482
0.568485
0.568485
0.568487
0.56849
0.568493
0.568496
0.568496
0.568498
0.568501
0.568504
0.568507
0.568507
0.568509
0.568512
0.568515
0.568518
0.568518
0.56852
0.568523
0.568526
0.568529
0.568529
0.568531
0.568534
0.568537
0.56854
0.56854
0.568543
0.568545
0.568548
0.568551
0.568551
0.568554
0.568556
0.568559
0.568562
0.568562
0.568565
0.568568
0.56857
0.568573
0.568573
0.568576
0.568579
0.568582
0.568584
0.568584
0.568587
0.56859
0.568593
0.568596
0.568596
0.568599
0.568601
0.568604
0.568607
0.568607
0.56861
0.568613
0.568616
0.568619
0.568619
0.568622
0.568624
0.568627
0.56863
0.56863
0.568633
0.568636
0.568639
0.568642
0.568642
0.568645
0.568648
0.56865
0.568653
0.568653
0.568656
0.568659
0.568662
0.568665
0.568665
0.568668
0.568671
0.568674
0.568677
0.568677
0.56868
0.568683
0.568686
0.568688
0.568688
0.568691
0.568694
0.568697
0.5687
0.5687
0.568703
0.568706
0.568709
0.568712
0.568712
0.568715
0.568718
0.568721
0.568724
0.568724
0.568727
0.56873
0.568733
0.568736
0.568736
0.568739
0.568742
0.568745
0.568748
0.568748
0.568751
0.568754
0.568757
0.56876
0.56876
0.568763
0.568766
0.568769
0.568772
0.568772
0.568775
0.568778
0.568781
0.568784
0.568784
0.568787
0.56879
0.568793
0.568796
0.568796
0.5688
0.568803
0.568806
0.568809
0.568809
0.568812
0.568815
0.568818
0.568821
0.568821
0.568824
0.568827
0.56883
0.568833
0.568833
0.568836
0.56884
0.568843
0.568846
0.568846
0.568849
0.568852
0.568855
0.568858
0.568858
0.568861
0.568864
0.568867
0.568871
0.568871
0.568874
0.568877
0.56888
0.568883
0.568883
0.568886
0.56889
0.568893
0.568896
0.568896
0.568899
0.568902
0.568906
0.568909
0.568909
0.568912
0.568915
0.568918
0.568922
0.568922
0.568925
0.568928
0.568931
0.568934
0.568934
0.568938
0.568941
0.568944
0.568947
0.568947
0.568951
0.568954
0.568957
0.56896
0.56896
0.568963
0.568967
0.56897
0.568973
0.568973
0.568976
0.56898
0.568983
0.568986
0.568986
0.56899
0.568993
0.568996
0.568999
0.568999
0.569003
0.569006
0.569009
0.569013
0.569013
0.569016
0.569019
0.569022
0.569026
0.569026
0.569029
0.569032
0.569036
0.569039
0.569039
0.569042
0.569046
0.569049
0.569052
0.569052
0.569056
0.569059
0.569062
0.569066
0.569066
0.569069
0.569072
0.569076
0.569079
0.569079
0.569083
0.569086
0.569089
0.569093
0.569093
0.569096
0.569099
0.569103
0.569106
0.569106
0.56911
0.569113
0.569116
0.56912
0.56912
0.569123
0.569127
0.56913
0.569133
0.569133
0.569137
0.56914
0.569144
0.569147
0.569147
0.569151
0.569154
0.569157
0.569161
0.569161
0.569164
0.569168
0.569171
0.569175
0.569175
0.569178
0.569182
0.569185
0.569189
0.569189
0.569192
0.569196
0.569199
0.569203
0.569203
0.569206
0.56921
0.569213
0.569217
0.569217
0.569221
0.569224
0.569228
0.569231
0.569231
0.569235
0.569238
0.569242
0.569245
0.569245
0.569249
0.569252
0.569256
0.56926
0.56926
0.569263
0.569267
0.56927
0.569274
0.569274
0.569277
0.569281
0.569285
0.569288
0.569288
0.569292
0.569295
0.569299
0.569303
0.569303
0.569306
0.56931
0.569314
0.569317
0.569317
0.569321
0.569324
0.569328
0.569332
0.569332
0.569335
0.569339
0.569343
0.569346
0.569346
0.56935
0.569354
0.569357
0.569361
0.569361
0.569365
0.569368
0.569372
0.569376
0.569376
0.56938
0.569383
0.569387
0.569391
0.569391
0.569394
0.569398
0.569402
0.569406
0.569406
0.569409
0.569413
0.569417
0.569421
0.569421
0.569424
0.569428
0.569432
0.569436
0.569436
0.569439
0.569443
0.569447
0.569451
0.569451
0.569454
0.569458
0.569462
0.569466
0.569466
0.569469
0.569473
0.569477
0.569481
0.569481
0.569485
0.569488
0.569492
0.569496
0.569496
0.5695
0.569504
0.569508
0.569512
0.569512
0.569516
0.569519
0.569523
0.569527
0.569527
0.569531
0.569535
0.569539
0.569543
0.569543
0.569547
0.56955
0.569554
0.569558
0.569558
0.569562
0.569566
0.56957
0.569574
0.569574
0.569578
0.569582
0.569586
0.56959
0.56959
0.569594
0.569597
0.569601
0.569605
0.569605
0.569609
0.569613
0.569617
0.569621
0.569621
0.569625
0.569629
0.569633
0.569637
0.569637
0.569641
0.569645
0.569649
0.569653
0.569653
0.569657
0.569661
0.569665
0.569669
0.569669
0.569673
0.569677
0.569681
0.569685
0.569685
0.569689
0.569693
0.569698
0.569702
0.569702
0.569706
0.56971
0.569714
0.569718
0.569718
0.569722
0.569726
0.56973
0.569734
0.569734
0.569738
0.569742
0.569747
0.569751
0.569751
0.569755
0.569759
0.569763
0.569767
0.569767
0.569771
0.569775
0.569779
0.569784
0.569784
0.569788
0.569792
0.569796
0.5698
0.5698
0.569804
0.569808
0.569813
0.569817
0.569817
0.569821
0.569825
0.56983
0.569834
0.569834
0.569838
0.569842
0.569847
0.569851
0.569851
0.569855
0.569859
0.569864
0.569868
0.569868
0.569872
0.569876
0.569881
0.569885
0.569885
0.569889
0.569893
0.569898
0.569902
0.569902
0.569906
0.569911
0.569915
0.569919
0.569919
0.569924
0.569928
0.569932
0.569937
0.569937
0.569941
0.569945
0.56995
0.569954
0.569954
0.569958
0.569963
0.569967
0.569971
0.569971
0.569976
0.56998
0.569984
0.569989
0.569989
0.569993
0.569998
0.570002
0.570006
0.570006
0.570011
0.570015
0.57002
0.570024
0.570024
0.570029
0.570033
0.570037
0.570042
0.570042
0.570046
0.570051
0.570055
0.57006
0.57006
0.570064
0.570069
0.570073
0.570078
0.570078
0.570082
0.570087
0.570091
0.570096
0.570096
0.5701
0.570105
0.570109
0.570114
0.570114
0.570118
0.570123
0.570127
0.570132
0.570132
0.570136
0.570141
0.570145
0.57015
0.57015
0.570154
0.570159
0.570163
0.570168
0.570168
0.570173
0.570177
0.570182
0.570187
0.570187
0.570191
0.570196
0.570201
0.570205
0.570205
0.57021
0.570215
0.570219
0.570224
0.570224
0.570229
0.570233
0.570238
0.570243
0.570243
0.570247
0.570252
0.570257
0.570261
0.570261
0.570266
0.570271
0.570275
0.57028
0.57028
0.570285
0.57029
0.570294
0.570299
0.570299
0.570304
0.570309
0.570313
0.570318
0.570318
0.570323
0.570328
0.570332
0.570337
0.570337
0.570342
0.570347
0.570352
0.570356
0.570356
0.570361
0.570366
0.570371
0.570376
0.570376
0.570381
0.570385
0.57039
0.570395
0.570395
0.5704
0.570405
0.57041
0.570415
0.570415
0.570419
0.570424
0.570429
0.570434
0.570434
0.570439
0.570444
0.570449
0.570454
0.570454
0.570459
0.570464
0.570468
0.570473
0.570473
0.570478
0.570483
0.570488
0.570493
0.570493
0.570498
0.570503
0.570508
0.570513
0.570513
0.570518
0.570523
0.570528
0.570533
0.570533
0.570538
0.570543
0.570548
0.570553
0.570553
0.570558
0.570563
0.570568
0.570573
0.570573
0.570579
0.570584
0.570589
0.570594
0.570594
0.570599
0.570604
0.570609
0.570614
0.570614
0.570619
0.570624
0.57063
0.570635
0.570635
0.57064
0.570645
0.57065
0.570655
0.570655
0.57066
0.570666
0.570671
0.570676
0.570676
0.570681
0.570686
0.570692
0.570697
0.570697
0.570702
0.570707
0.570712
0.570718
0.570718
0.570723
0.570728
0.570733
0.570739
0.570739
0.570744
0.570749
0.570754
0.57076
0.57076
0.570765
0.57077
0.570775
0.570781
0.570781
0.570786
0.570791
0.570797
0.570802
0.570802
0.570807
0.570813
0.570818
0.570823
0.570823
0.570829
0.570834
0.570839
0.570845
0.570845
0.57085
0.570856
0.570861
0.570866
0.570866
0.570872
0.570877
0.570882
0.570888
0.570888
0.570893
0.570899
0.570904
0.570909
0.570909
0.570915
0.57092
0.570926
0.570931
0.570931
0.570937
0.570943
0.570948
0.570954
0.570954
0.570959
0.570965
0.57097
0.570976
0.570976
0.570981
0.570987
0.570992
0.570998
0.570998
0.571004
0.571009
0.571015
0.57102
0.57102
0.571026
0.571031
0.571037
0.571043
0.571043
0.571048
0.571054
0.57106
0.571065
0.571065
0.571071
0.571076
0.571082
0.571088
0.571088
0.571093
0.571099
0.571105
0.57111
0.57111
0.571116
0.571122
0.571128
0.571133
0.571133
0.571139
0.571145
0.571151
0.571156
0.571156
0.571162
0.571168
0.571174
0.571179
0.571179
0.571185
0.571191
0.571197
0.571202
0.571202
0.571208
0.571214
0.57122
0.571226
0.571226
0.571231
0.571237
0.571243
0.571249
0.571249
0.571255
0.571261
0.571267
0.571272
0.571272
0.571278
0.571284
0.57129
0.571296
0.571296
0.571302
0.571308
0.571313
0.571319
0.571319
0.571325
0.571331
0.571337
0.571343
0.571343
0.571349
0.571355
0.571361
0.571368
0.571368
0.571374
0.57138
0.571386
0.571392
0.571392
0.571398
0.571404
0.57141
0.571416
0.571416
0.571422
0.571428
0.571434
0.57144
0.57144
0.571446
0.571452
0.571458
0.571465
0.571465
0.571471
0.571477
0.571483
0.571489
0.571489
0.571495
0.571501
0.571508
0.571514
0.571514
0.57152
0.571526
0.571532
0.571538
0.571538
0.571545
0.571551
0.571557
0.571563
0.571563
0.57157
0.571576
0.571582
0.571588
0.571588
0.571595
0.571601
0.571607
0.571613
0.571613
0.57162
0.571626
0.571632
0.571639
0.571639
0.571645
0.571651
0.571658
0.571664
0.571664
0.57167
0.571677
0.571683
0.571689
0.571689
0.571696
0.571702
0.571709
0.571715
0.571715
0.571721
0.571728
0.571734
0.57174
0.57174
0.571747
0.571753
0.57176
0.571766
0.571766
0.571773
0.571779
0.571786
0.571793
0.571793
0.571799
0.571806
0.571812
0.571819
0.571819
0.571825
0.571832
0.571839
0.571845
0.571845
0.571852
0.571858
0.571865
0.571872
0.571872
0.571878
0.571885
0.571891
0.571898
0.571898
0.571905
0.571911
0.571918
0.571925
0.571925
0.571931
0.571938
0.571945
0.571951
0.571951
0.571958
0.571965
0.571972
0.571978
0.571978
0.571985
0.571992
0.571999
0.572005
0.572005
0.572012
0.572019
0.572026
0.572033
0.572033
0.572039
0.572046
0.572053
0.57206
0.57206
0.572067
0.572073
0.57208
0.572087
0.572087
0.572094
0.572101
0.572108
0.572115
0.572115
0.572122
0.572129
0.572135
0.572142
0.572142
0.572149
0.572156
0.572163
0.57217
0.57217
0.572177
0.572184
0.572191
0.572198
0.572198
0.572205
0.572212
0.572219
0.572226
0.572226
0.572233
0.57224
0.572247
0.572254
0.572254
0.572262
0.572269
0.572276
0.572283
0.572283
0.57229
0.572297
0.572304
0.572312
0.572312
0.572319
0.572326
0.572333
0.57234
0.57234
0.572347
0.572355
0.572362
0.572369
0.572369
0.572376
0.572384
0.572391
0.572398
0.572398
0.572405
0.572413
0.57242
0.572427
0.572427
0.572434
0.572442
0.572449
0.572456
0.572456
0.572464
0.572471
0.572478
0.572486
0.572486
0.572493
0.572501
0.572508
0.572515
0.572515
0.572523
0.57253
0.572538
0.572545
0.572545
0.572553
0.57256
0.572567
0.572575
0.572575
0.572582
0.57259
0.572597
0.572605
0.572605
0.572612
0.57262
0.572627
0.572635
0.572635
0.572642
0.57265
0.572657
0.572665
0.572665
0.572672
0.57268
0.572688
0.572695
0.572695
0.572703
0.572711
0.572718
0.572726
0.572726
0.572734
0.572742
0.572749
0.572757
0.572757
0.572765
0.572772
0.57278
0.572788
0.572788
0.572796
0.572804
0.572811
0.572819
0.572819
0.572827
0.572835
0.572843
0.57285
0.57285
0.572858
0.572866
0.572874
0.572882
0.572882
0.57289
0.572898
0.572905
0.572913
0.572913
0.572921
0.572929
0.572937
0.572945
0.572945
0.572953
0.572961
0.572969
0.572977
0.572977
0.572985
0.572993
0.573001
0.573009
0.573009
0.573017
0.573025
0.573033
0.573041
0.573041
0.573049
0.573057
0.573065
0.573073
0.573073
0.573081
0.57309
0.573098
0.573106
0.573106
0.573114
0.573122
0.57313
0.573138
0.573138
0.573147
0.573155
0.573163
0.573171
0.573171
0.573179
0.573187
0.573196
0.573204
0.573204
0.573212
0.573221
0.573229
0.573237
0.573237
0.573246