<?xml version="1.0"?>
<VTKFile type="UnstructuredGrid" version="0.1" byte_order="LittleEndian">
<UnstructuredGrid>
<Piece NumberOfPoints="5000" NumberOfCells="4000">
<PointData Scalars="Reaction 0">
<DataArray type="Float32" Name="Reaction 0" format="ascii">
0.443973
0.443973
0.443973
0.443973
0.443973
0.443973
0.443973
0.443973
0.443974
0.443974
0.443974
0.443974
0.443974
0.443975
0.443975
0.443975
0.443976
0.443976
0.443976
0.443977
0.443977
0.443977
0.443978
0.443979
0.443979
0.443979
0.44398
0.443981
0.443981
0.443982
0.443982
0.443983
0.443984
0.443985
0.443985
0.443985
0.443986
0.443987
0.443988
0.443989
0.443989
0.44399
0.443991
0.443992
0.443994
0.443994
0.443995
0.443996
0.443997
0.443998
0.443998
0.444
0.444001
0.444002
0.444004
0.444004
0.444005
0.444007
0.444008
0.44401
0.44401
0.444011
0.444013
0.444015
0.444016
0.444016
0.444018
0.44402
0.444021
0.444023
0.444023
0.444025
0.444027
0.444029
0.444031
0.444031
0.444032
0.444034
0.444036
0.444038
0.444038
0.444041
0.444043
0.444045
0.444047
0.444047
0.444049
0.444051
0.444054
0.444056
0.444056
0.444058
0.444061
0.444063
0.444065
0.444065
0.444068
0.44407
0.444073
0.444075
0.444075
0.444078
0.444081
0.444083
0.444086
0.444086
0.444089
0.444091
0.444094
0.444097
0.444097
0.4441
0.444103
0.444106
0.444108
0.444108
0.444111
0.444114
0.444117
0.444121
0.444121
0.444124
0.444127
0.44413
0.444133
0.444133
0.444136
0.44414
0.444143
0.444146
0.444146
0.44415
0.444153
0.444156
0.44416
0.44416
0.444163
0.444167
0.44417
0.444174
0.444174
0.444177
0.444181
0.444185
0.444189
0.444189
0.444192
0.444196
0.4442
0.444204
0.444204
0.444208
0.444211
0.444215
0.444219
0.444219
0.444223
0.444227
0.444231
0.444235
0.444235
0.44424
0.444244
0.444248
0.444252
0.444252
0.444256
0.444261
0.444265
0.444269
0.444269
0.444274
0.444278
0.444283
0.444287
0.444287
0.444292
0.444296
0.444301
0.444305
0.444305
0.44431
0.444315
0.444319
0.444324
0.444324
0.444329
0.444333
0.444338
0.444343
0.444343
0.444348
0.444353
0.444358
0.444363
0.444363
0.444368
0.444373
0.444378
0.444383
0.444383
0.444388
0.444394
0.444399
0.444404
0.444404
0.444409
0.444415
0.44442
0.444425
0.444425
0.444431
0.444436
0.444442
0.444447
0.444447
0.444453
0.444458
0.444464
0.444469
0.444469
0.444475
0.444481
0.444486
0.444492
0.444492
0.444498
0.444504
0.44451
0.444516
0.444516
0.444522
0.444527
0.444533
0.444539
0.444539
0.444545
0.444552
0.444558
0.444564
0.444564
0.44457
0.444576
0.444582
0.444589
0.444589
0.444595
0.444601
0.444608
0.444614
0.444614
0.444621
0.444627
0.444634
0.44464
0.44464
0.444647
0.444653
0.44466
0.444666
0.444666
0.444673
0.44468
0.444687
0.444693
0.444693
0.4447
0.444707
0.444714
0.444721
0.444721
0.444728
0.444735
0.444742
0.444749
0.444749
0.444756
0.444763
0.44477
0.444777
0.444777
0.444785
0.444792
0.444799
0.444806
0.444806
0.444814
0.444821
0.444828
0.444836
0.444836
0.444843
0.444851
0.444858
0.444866
0.444866
0.444873
0.444881
0.444889
0.444896
0.444896
0.444904
0.444912
0.44492
0.444927
0.444927
0.444935
0.444943
0.444951
0.444959
0.444959
0.444967
0.444975
0.444983
0.444991
0.444991
0.444999
0.445007
0.445016
0.445024
0.445024
0.445032
0.44504
0.445049
0.445057
0.445057
0.445065
0.445074
0.445082
0.44509
0.44509
0.445099
0.445107
0.445116
0.445125
0.445125
0.445133
0.445142
0.445151
0.445159
0.445159
0.445168
0.445177
0.445186
0.445194
0.445194
0.445203
0.445212
0.445221
0.44523
0.44523
0.445239
0.445248
0.445257
0.445266
0.445266
0.445275
0.445285
0.445294
0.445303
0.445303
0.445312
0.445322
0.445331
0.44534
0.44534
0.44535
0.445359
0.445369
0.445378
0.445378
0.445388
0.445397
0.445407
0.445416
0.445416
0.445426
0.445436
0.445445
0.445455
0.445455
0.445465
0.445475
0.445485
0.445494
0.445494
0.445504
0.445514
0.445524
0.445534
0.445534
0.445544
0.445554
0.445564
0.445575
0.445575
0.445585
0.445595
0.445605
0.445615
0.445615
0.445626
0.445636
0.445646
0.445657
0.445657
0.445667
0.445678
0.445688
0.445699
0.445699
0.445709
0.44572
0.44573
0.445741
0.445741
0.445752
0.445762
0.445773
0.445784
0.445784
0.445795
0.445806
0.445816
0.445827
0.445827
0.445838
0.445849
0.44586
0.445871
0.445871
0.445882
0.445893
0.445905
0.445916
0.445916
0.445927
0.445938
0.445949
0.445961
0.445961
0.445972
0.445983
0.445995
0.446006
0.446006
0.446018
0.446029
0.446041
0.446052
0.446052
0.446064
0.446075
0.446087
0.446099
0.446099
0.44611
0.446122
0.446134
0.446146
0.446146
0.446158
0.446169
0.446181
0.446193
0.446193
0.446205
0.446217
0.446229
0.446241
0.446241
0.446253
0.446266
0.446278
0.44629
0.44629
0.446302
0.446314
0.446327
0.446339
0.446339
0.446351
0.446364
0.446376
0.446389
0.446389
0.446401
0.446414
0.446426
0.446439
0.446439
0.446451
0.446464
0.446477
0.446489
0.446489
0.446502
0.446515
0.446528
0.446541
0.446541
0.446553
0.446566
0.446579
0.446592
0.446592
0.446605
0.446618
0.446631
0.446644
0.446644
0.446658
0.446671
0.446684
0.446697
0.446697
0.44671
0.446724
0.446737
0.44675
0.44675
0.446764
0.446777
0.446791
0.446804
0.446804
0.446818
0.446831
0.446845
0.446858
0.446858
0.446872
0.446886
0.4469
0.446913
0.446913
0.446927
0.446941
0.446955
0.446969
0.446969
0.446982
0.446996
0.44701
0.447024
0.447024
0.447038
0.447053
0.447067
0.447081
0.447081
0.447095
0.447109
0.447123
0.447138
0.447138
0.447152
0.447166
0.447181
0.447195
0.447195
0.447209
0.447224
0.447238
0.447253
0.447253
0.447267
0.447282
0.447297
0.447311
0.447311
0.447326
0.447341
0.447355
0.44737
0.44737
0.447385
0.4474
0.447415
0.44743
0.44743
0.447445
0.44746
0.447475
0.44749
0.44749
0.447505
0.44752
0.447535
0.44755
0.44755
0.447565
0.447581
0.447596
0.447611
0.447611
0.447626
0.447642
0.447657
0.447673
0.447673
0.447688
0.447704
0.447719
0.447735
0.447735
0.44775
0.447766
0.447782
0.447797
0.447797
0.447813
0.447829
0.447845
0.44786
0.44786
0.447876
0.447892
0.447908
0.447924
0.447924
0.44794
0.447956
0.447972
0.447988
0.447988
0.448004
0.44802
0.448037
0.448053
0.448053
0.448069
0.448085
0.448102
0.448118
0.448118
0.448134
0.448151
0.448167
0.448184
0.448184
0.4482
0.448217
0.448233
0.44825
0.44825
0.448266
0.448283
0.4483
0.448317
0.448317
0.448333
0.44835
0.448367
0.448384
0.448384
0.448401
0.448418
0.448435
0.448452
0.448452
0.448469
0.448486
0.448503
0.44852
0.44852
0.448537
0.448554
0.448571
0.448589
0.448589
0.448606
0.448623
0.448641
0.448658
0.448658
0.448675
0.448693
0.44871
0.448728
0.448728
0.448745
0.448763
0.448781
0.448798
0.448798
0.448816
0.448834
0.448851
0.448869
0.448869
0.448887
0.448905
0.448923
0.44894
0.44894
0.448958
0.448976
0.448994
0.449012
0.449012
0.44903
0.449049
0.449067
0.449085
0.449085
0.449103
0.449121
0.44914
0.449158
0.449158
0.449176
0.449195
0.449213
0.449231
0.449231
0.44925
0.449268
0.449287
0.449305
0.449305
0.449324
0.449343
0.449361
0.44938
0.44938
0.449399
0.449417
0.449436
0.449455
0.449455
0.449474
0.449493
0.449512
0.449531
0.449531
0.44955
0.449569
0.449588
0.449607
0.449607
0.449626
0.449645
0.449664
0.449683
0.449683
0.449702
0.449722
0.449741
0.44976
0.44976
0.44978
0.449799
0.449819
0.449838
0.449838
0.449858
0.449877
0.449897
0.449916
0.449916
0.449936
0.449956
0.449975
0.449995
0.449995
0.450015
0.450035
0.450054
0.450074
0.450074
0.450094
0.450114
0.450134
0.450154
0.450154
0.450174
0.450194
0.450214
0.450234
0.450234
0.450254
0.450275
0.450295
0.450315
0.450315
0.450335
0.450356
0.450376
0.450396
0.450396
0.450417
0.450437
0.450458
0.450478
0.450478
0.450499
0.450519
0.45054
0.450561
0.450561
0.450581
0.450602
0.450623
0.450644
0.450644
0.450664
0.450685
0.450706
0.450727
0.450727
0.450748
0.450769
0.45079
0.450811
0.450811
0.450832
0.450853
0.450874
0.450895
0.450895
0.450917
0.450938
0.450959
0.45098
0.45098
0.451002
0.451023
0.451045
0.451066
0.451066
0.451087
0.451109
0.45113
0.451152
0.451152
0.451174
0.451195
0.451217
0.451239
0.451239
0.45126
0.451282
0.451304
0.451326
0.451326
0.451348
0.451369
0.451391
0.451413
0.451413
0.451435
0.451457
0.451479
0.451501
0.451501
0.451524
0.451546
0.451568
0.45159
0.45159
0.451612
0.451635
0.451657
0.451679
0.451679
0.451702
0.451724
0.451747
0.451769
0.451769
0.451792
0.451814
0.451837
0.451859
0.451859
0.451882
0.451905
0.451927
0.45195
0.45195
0.451973
0.451996
0.452019
0.452041
0.452041
0.452064
0.452087
0.45211
0.452133
0.452133
0.452156
0.452179
0.452203
0.452226
0.452226
0.452249
0.452272
0.452295
0.452319
0.452319
0.452342
0.452365
0.452389
0.452412
0.452412
0.452435
0.452459
0.452482
0.452506
0.452506
0.452529
0.452553
0.452577
0.4526
0.4526
0.452624
0.452648
0.452672
0.452695
0.452695
0.452719
0.452743
0.452767
0.452791
0.452791
0.452815
0.452839
0.452863
0.452887
0.452887
0.452911
0.452935
0.452959
0.452984
0.452984
0.453008
0.453032
0.453056
0.453081
0.453081
0.453105
0.453129
0.453154
0.453178
0.453178
0.453203
0.453227
0.453252
0.453276
0.453276
0.453301
0.453326
0.45335
0.453375
0.453375
0.4534
0.453425
0.45345
0.453474
0.453474
0.453499
0.453524
0.453549
0.453574
0.453574
0.453599
0.453624
0.453649
0.453674
0.453674
0.4537
0.453725
0.45375
0.453775
0.453775
0.453801
0.453826
0.453851
0.453877
0.453877
0.453902
0.453927
0.453953
0.453978
0.453978
0.454004
0.45403
0.454055
0.454081
0.454081
0.454107
0.454132
0.454158
0.454184
0.454184
0.45421
0.454235
0.454261
0.454287
0.454287
0.454313
0.454339
0.454365
0.454391
0.454391
0.454417
0.454443
0.45447
0.454496
0.454496
0.454522
0.454548
0.454574
0.454601
0.454601
0.454627
0.454654
0.45468
0.454706
0.454706
0.454733
0.454759
0.454786
0.454813
0.454813
0.454839
0.454866
0.454892
0.454919
0.454919
0.454946
0.454973
0.454999
0.455026
0.455026
0.455053
0.45508
0.455107
0.455134
0.455134
0.455161
0.455188
0.455215
0.455242
0.455242
0.455269
0.455297
0.455324
0.455351
0.455351
0.455378
0.455406
0.455433
0.45546
0.45546
0.455488
0.455515
0.455543
0.45557
0.45557
0.455598
0.455625
0.455653
0.455681
0.455681
0.455708
0.455736
0.455764
0.455792
0.455792
0.455819
0.455847
0.455875
0.455903
0.455903
0.455931
0.455959
0.455987
0.456015
0.456015
0.456043
0.456071
0.456099
0.456127
0.456127
0.456156
0.456184
0.456212
0.45624
0.45624
0.456269
0.456297
0.456326
0.456354
0.456354
0.456383
0.456411
0.45644
0.456468
0.456468
0.456497
0.456525
0.456554
0.456583
0.456583
0.456612
0.45664
0.456669
0.456698
0.456698
0.456727
0.456756
0.456785
0.456814
0.456814
0.456843
0.456872
0.456901
0.45693
0.45693
0.456959
0.456988
0.457017
0.457047
0.457047
0.457076
0.457105
0.457135
0.457164
0.457164
0.457193
0.457223
0.457252
0.457282
0.457282
0.457311
0.457341
0.457371
0.4574
0.4574
0.45743
0.45746
0.457489
0.457519
0.457519
0.457549
0.457579
0.457609
0.457639
0.457639
0.457669
0.457699
0.457729
0.457759
0.457759
0.457789
0.457819
0.457849
0.457879
0.457879
0.457909
0.45794
0.45797
0.458
0.458
0.458031
0.458061
0.458091
0.458122
0.458122
0.458152
0.458183
0.458213
0.458244
0.458244
0.458275
0.458305
0.458336
0.458367
0.458367
0.458397
0.458428
0.458459
0.45849
0.45849
0.458521
0.458552
0.458583
0.458614
0.458614
0.458645
0.458676
0.458707
0.458738
0.458738
0.458769
0.4588
0.458832
0.458863
0.458863
0.458894
0.458925
0.458957
0.458988
0.458988
0.45902
0.459051
0.459083
0.459114
0.459114
0.459146
0.459177
0.459209
0.459241
0.459241
0.459272
0.459304
0.459336
0.459368
0.459368
0.459399
0.459431
0.459463
0.459495
0.459495
0.459527
0.459559
0.459591
0.459623
0.459623
0.459655
0.459687
0.45972
0.459752
0.459752
0.459784
0.459816
0.459849
0.459881
0.459881
0.459913
0.459946
0.459978
0.460011
0.460011
0.460043
0.460076
0.460108
0.460141
0.460141
0.460174
0.460206
0.460239
0.460272
0.460272
0.460304
0.460337
0.46037
0.460403
0.460403
0.460436
0.460469
0.460502
0.460535
0.460535
0.460568
0.460601
0.460634
0.460667
0.460667
0.4607
0.460734
0.460767
0.4608
0.4608
0.460833
0.460867
0.4609
0.460934
0.460934
0.460967
0.461001
0.461034
0.461068
0.461068
0.461101
0.461135
0.461169
0.461202
0.461202
0.461236
0.46127
0.461304
0.461337
0.461337
0.461371
0.461405
0.461439
0.461473
0.461473
0.461507
0.461541
0.461575
0.461609
0.461609
0.461643
0.461678
0.461712
0.461746
0.461746
0.46178
0.461815
0.461849
0.461883
0.461883
0.461918
0.461952
0.461987
0.462021
0.462021
0.462056
0.46209
0.462125
0.462159
0.462159
0.462194
0.462229
0.462264
0.462298
0.462298
0.462333
0.462368
0.462403
0.462438
0.462438
0.462473
0.462508
0.462543
0.462578
0.462578
0.462613
0.462648
0.462683
0.462718
0.462718
0.462754
0.462789
0.462824
0.46286
0.46286
0.462895
0.46293
0.462966
0.463001
0.463001
0.463037
0.463072
0.463108
0.463143
0.463143
0.463179
0.463215
0.46325
0.463286
0.463286
0.463322
0.463358
0.463394
0.463429
0.463429
0.463465
0.463501
0.463537
0.463573
0.463573
0.463609
0.463645
0.463681
0.463718
0.463718
0.463754
0.46379
0.463826
0.463863
0.463863
0.463899
0.463935
0.463972
0.464008
0.464008
0.464044
0.464081
0.464117
0.464154
0.464154
0.464191
0.464227
0.464264
0.464301
0.464301
0.464337
0.464374
0.464411
0.464448
0.464448
0.464485
0.464522
0.464558
0.464595
0.464595
0.464632
0.464669
0.464707
0.464744
0.464744
0.464781
0.464818
0.464855
0.464892
0.464892
0.46493
0.464967
0.465004
0.465042
0.465042
0.465079
0.465117
0.465154
0.465192
0.465192
0.465229
0.465267
0.465304
0.465342
0.465342
0.46538
0.465417
0.465455
0.465493
0.465493
0.465531
0.465569
0.465607
0.465645
0.465645
0.465682
0.46572
0.465759
0.465797
0.465797
0.465835
0.465873
0.465911
0.465949
0.465949
0.465987
0.466026
0.466064
0.466102
0.466102
0.466141
0.466179
0.466218
0.466256
0.466256
0.466295
0.466333
0.466372
0.46641
0.46641
0.466449
0.466488
0.466526
0.466565
0.466565
0.466604
0.466643
0.466682
0.466721
0.466721
0.46676
0.466799
0.466838
0.466877
0.466877
0.466916
0.466955
0.466994
0.467033
0.467033
0.467072
0.467112
0.467151
0.46719
0.46719
0.467229
0.467269
0.467308
0.467348
0.467348
0.467387
0.467427
0.467466
0.467506
0.467506
0.467546
0.467585
0.467625
0.467665
0.467665
0.467704
0.467744
0.467784
0.467824
0.467824
0.467864
0.467904
0.467944
0.467984
0.467984
0.468024
0.468064
0.468104
0.468144
0.468144
0.468184
0.468224
0.468265
0.468305
0.468305
0.468345
0.468386
0.468426
0.468467
0.468467
0.468507
0.468547
0.468588
0.468629
0.468629
0.468669
0.46871
0.46875
0.468791
0.468791
0.468832
0.468873
0.468913
0.468954
0.468954
0.468995
0.469036
0.469077
0.469118
0.469118
0.469159
0.4692
0.469241
0.469282
0.469282
0.469323
0.469365
0.469406
0.469447
0.469447
0.469488
0.46953
0.469571
0.469613
0.469613
0.469654
0.469695
0.469737
0.469779
0.469779
0.46982
0.469862
0.469903
0.469945
0.469945
0.469987
0.470028
0.47007
0.470112
0.470112
0.470154
0.470196
0.470238
0.47028
0.47028
0.470322
0.470364
0.470406
0.470448
0.470448
0.47049
0.470532
0.470574
0.470617
0.470617
0.470659
0.470701
0.470744
0.470786
0.470786
0.470828
0.470871
0.470913
0.470956
0.470956
0.470998
0.471041
0.471084
0.471126
0.471126
0.471169
0.471212
0.471254
0.471297
0.471297
0.47134
0.471383
0.471426
0.471469
0.471469
0.471512
0.471555
0.471598
0.471641
0.471641
0.471684
0.471727
0.47177
0.471814
0.471814
0.471857
0.4719
0.471944
0.471987
0.471987
0.47203
0.472074
0.472117
0.472161
0.472161
0.472204
0.472248
0.472291
0.472335
0.472335
0.472379
0.472423
0.472466
0.47251
0.47251
0.472554
0.472598
0.472642
0.472686
0.472686
0.47273
0.472774
0.472818
0.472862
0.472862
0.472906
0.47295
0.472994
0.473038
0.473038
0.473083
0.473127
0.473171
0.473215
0.473215
0.47326
0.473304
0.473349
0.473393
0.473393
0.473438
0.473482
0.473527
0.473572
0.473572
0.473616
0.473661
0.473706
0.47375
0.47375
0.473795
0.47384
0.473885
0.47393
0.47393
0.473975
0.47402
0.474065
0.47411
0.47411
0.474155
0.4742
0.474245
0.474291
0.474291
0.474336
0.474381
0.474426
0.474472
0.474472
0.474517
0.474563
0.474608
0.474653
0.474653
0.474699
0.474745
0.47479
0.474836
0.474836
0.474881
0.474927
0.474973
0.475019
0.475019
0.475064
0.47511
0.475156
0.475202
0.475202
0.475248
0.475294
0.47534
0.475386
0.475386
0.475432
0.475478
0.475524
0.475571
0.475571
0.475617
0.475663
0.47571
0.475756
0.475756
0.475802
0.475849
0.475895
0.475942
0.475942
0.475988
0.476035
0.476081
0.476128
0.476128
0.476175
0.476221
0.476268
0.476315
0.476315
0.476362
0.476408
0.476455
0.476502
0.476502
0.476549
0.476596
0.476643
0.47669
0.47669
0.476737
0.476784
0.476832
0.476879
0.476879
0.476926
0.476973
0.477021
0.477068
0.477068
0.477115
0.477163
0.47721
0.477258
0.477258
0.477305
0.477353
0.4774
0.477448
0.477448
0.477496
0.477543
0.477591
0.477639
0.477639
0.477687
0.477735
0.477782
0.47783
0.47783
0.477878
0.477926
0.477974
0.478022
0.478022
0.47807
0.478119
0.478167
0.478215
0.478215
0.478263
0.478311
0.47836
0.478408
0.478408
0.478457
0.478505
0.478553
0.478602
0.478602
0.47865
0.478699
0.478748
0.478796
0.478796
0.478845
0.478894
0.478942
0.478991
0.478991
0.47904
0.479089
0.479138
0.479187
0.479187
0.479236
0.479285
0.479334
0.479383
0.479383
0.479432
0.479481
0.47953
0.479579
0.479579
0.479629
0.479678
0.479727
0.479777
0.479777
0.479826
0.479875
0.479925
0.479974
0.479974
0.480024
0.480074
0.480123
0.480173
0.480173
0.480222
0.480272
0.480322
0.480372
0.480372
0.480422
0.480471
0.480521
0.480571
0.480571
0.480621
0.480671
0.480721
0.480771
0.480771
0.480822
0.480872
0.480922
0.480972
0.480972
0.481022
0.481073
0.481123
0.481173
0.481173
0.481224
0.481274
0.481325
0.481375
0.481375
0.481426
0.481476
0.481527
0.481578
0.481578
0.481628
0.481679
0.48173
0.481781
0.481781
0.481832
0.481883
0.481933
0.481984
0.481984
0.482035
0.482086
0.482137
0.482189
0.482189
0.48224
0.482291
0.482342
0.482393
0.482393
0.482445
0.482496
0.482547
0.482599
0.482599
0.48265
0.482702
0.482753
0.482805
0.482805
0.482856
0.482908
0.48296
0.483011
0.483011
0.483063
0.483115
0.483167
0.483218
0.483218
0.48327
0.483322
0.483374
0.483426
0.483426
0.483478
0.48353
0.483582
0.483634
0.483634
0.483687
0.483739
0.483791
0.483843
0.483843
0.483896
0.483948
0.484
0.484053
0.484053
0.484105
0.484158
0.48421
0.484263
0.484263
0.484315
0.484368
0.484421
0.484473
0.484473
0.484526
0.484579
0.484632
0.484685
0.484685
0.484738
0.484791
0.484844
0.484897
0.484897
0.48495
0.485003
0.485056
0.485109
0.485109
0.485162
0.485215
0.485269
0.485322
0.485322
0.485375
0.485429
0.485482
0.485536
0.485536
0.485589
0.485643
0.485696
0.48575
0.48575
0.485803
0.485857
0.485911
0.485965
0.485965
0.486018
0.486072
0.486126
0.48618
0.48618
0.486234
0.486288
0.486342
0.486396
0.486396
0.48645
0.486504
0.486558
0.486612
0.486612
0.486667
0.486721
0.486775
0.48683
0.48683
0.486884
0.486938
0.486993
0.487047
0.487047
0.487102
0.487156
0.487211
0.487266
0.487266
0.48732
0.487375
0.48743
0.487485
0.487485
0.487539
0.487594
0.487649
0.487704
0.487704
0.487759
0.487814
0.487869
0.487924
0.487924
0.487979
0.488035
0.48809
0.488145
0.488145
0.4882
0.488256
0.488311
0.488366
0.488366
0.488422
0.488477
0.488533
0.488588
0.488588
0.488644
0.488699
0.488755
0.488811
0.488811
0.488866
0.488922
0.488978
0.489034
0.489034
0.48909
0.489146
0.489202
0.489258
0.489258
0.489314
0.48937
0.489426
0.489482
0.489482
0.489538
0.489594
0.48965
0.489707
0.489707
0.489763
0.489819
0.489876
0.489932
0.489932
0.489989
0.490045
0.490102
0.490158
0.490158
0.490215
0.490272
0.490328
0.490385
0.490385
0.490442
0.490499
0.490556
0.490612
0.490612
0.490669
0.490726
0.490783
0.49084
0.49084
0.490897
0.490955
0.491012
0.491069
0.491069
0.491126
0.491183
0.491241
0.491298
0.491298
0.491355
0.491413
0.49147
0.491528
0.491528
0.491585
0.491643
0.4917
0.491758
0.491758
0.491816
0.491873
0.491931
0.491989
0.491989
0.492047
0.492105
0.492163
0.49222
0.49222
0.492278
0.492336
0.492395
0.492453
0.492453
0.492511
0.492569
0.492627
0.492685
0.492685
0.492744
0.492802
0.49286
0.492919
0.492919
0.492977
0.493036
0.493094
0.493153
0.493153
0.493211
0.49327
0.493329
0.493387
0.493387
0.493446
0.493505
0.493564
0.493622
0.493622
0.493681
0.49374
0.493799
0.493858
0.493858
0.493917
0.493976
0.494035
0.494095
0.494095
0.494154
0.494213
0.494272
0.494332
0.494332
0.494391
0.49445
0.49451
0.494569
0.494569
0.494629
0.494688
0.494748
0.494807
0.494807
0.494867
0.494927
0.494986
0.495046
0.495046
0.495106
0.495166
0.495226
0.495286
0.495286
0.495346
0.495406
0.495466
0.495526
0.495526
0.495586
0.495646
0.495706
0.495766
0.495766
0.495827
0.495887
0.495947
0.496008
0.496008
0.496068
0.496129
0.496189
0.49625
0.49625
0.49631
0.496371
0.496431
0.496492
0.496492
0.496553
0.496614
0.496674
0.496735
0.496735
0.496796
0.496857
0.496918
0.496979
0.496979
0.49704
0.497101
0.497162
0.497223
0.497223
0.497285
0.497346
0.497407
0.497468
0.497468
0.49753
0.497591
0.497652
0.497714
0.497714
0.497775
0.497837
0.497898
0.49796
0.49796
0.498022
0.498083
0.498145
0.498207
0.498207
0.498269
0.498331
0.498392
0.498454
0.498454
0.498516
0.498578
0.49864
0.498702
0.498702
0.498765
0.498827
0.498889
0.498951
0.498951
0.499013
0.499076
0.499138
0.4992
0.4992
0.499263
0.499325
0.499388
0.49945
0.49945
0.499513
0.499576
0.499638
0.499701
0.499701
0.499764
0.499826
0.499889
0.499952
0.499952
0.500015
0.500078
0.500141
0.500204
0.500204
0.500267
0.50033
0.500393
0.500456
0.500456
0.500519
0.500583
0.500646
0.500709
0.500709
0.500773
0.500836
0.500899
0.500963
0.500963
0.501026
0.50109
0.501154
0.501217
0.501217
0.501281
0.501345
0.501408
0.501472
0.501472
0.501536
0.5016
0.501664
0.501728
0.501728
0.501792
0.501856
0.50192
0.501984
0.501984
0.502048
0.502112
0.502176
0.502241
0.502241
0.502305
0.502369
0.502434
0.502498
0.502498
0.502563
0.502627
0.502692
0.502756
0.502756
0.502821
0.502885
0.50295
0.503015
0.503015
0.50308
0.503144
0.503209
0.503274
0.503274
0.503339
0.503404
0.503469
0.503534
0.503534
0.503599
0.503664
0.503729
0.503795
0.503795
0.50386
0.503925
0.50399
0.504056
0.504056
0.504121
0.504187
0.504252
0.504318
0.504318
0.504383
0.504449
0.504514
0.50458
0.50458
0.504646
0.504712
0.504777
0.504843
0.504843
0.504909
0.504975
0.505041
0.505107
0.505107
0.505173
0.505239
0.505305
0.505371
0.505371
0.505437
0.505504
0.50557
0.505636
0.505636
0.505703
0.505769
0.505835
0.505902
0.505902
0.505968
0.506035
0.506102
0.506168
0.506168
0.506235
0.506302
0.506368
0.506435
0.506435
0.506502
0.506569
0.506636
0.506703
0.506703
0.50677
0.506837
0.506904
0.506971
0.506971
0.507038
0.507105
0.507172
0.50724
0.50724
0.507307
0.507374
0.507442
0.507509
0.507509
0.507577
0.507644
0.507712
0.507779
0.507779
0.507847
0.507914
0.507982
0.50805
0.50805
0.508118
0.508186
0.508253
0.508321
0.508321
0.508389
0.508457
0.508525
0.508593
0.508593
0.508661
0.50873
0.508798
0.508866
0.508866
0.508934
0.509003
0.509071
0.509139
0.509139
0.509208
0.509276
0.509345
0.509413
0.509413
0.509482
0.509551
0.509619
0.509688
0.509688
0.509757
0.509825
0.509894
0.509963
0.509963
0.510032
0.510101
0.51017
0.510239
0.510239
0.510308
0.510377
0.510446
0.510516
0.510516
0.510585
0.510654
0.510723
0.510793
0.510793
0.510862
0.510932
0.511001
0.511071
0.511071
0.51114
0.51121
0.511279
0.511349
0.511349
0.511419
0.511489
0.511558
0.511628
0.511628
0.511698
0.511768
0.511838
0.511908
0.511908
0.511978
0.512048
0.512118
0.512188
0.512188
0.512259
0.512329
0.512399
0.512469
0.512469
0.51254
0.51261
0.512681
0.512751
0.512751
0.512822
0.512892
0.512963
0.513034
0.513034
0.513104
0.513175
0.513246
0.513317
0.513317
0.513387
0.513458
0.513529
0.5136
0.5136
0.513671
0.513742
0.513814
0.513885
0.513885
0.513956
0.514027
0.514098
0.51417
0.51417
0.514241
0.514312
0.514384
0.514455
0.514455
0.514527
0.514598
0.51467
0.514742
0.514742
0.514813
0.514885
0.514957
0.515029
0.515029
0.5151
0.515172
0.515244
0.515316
0.515316
0.515388
0.51546
0.515532
0.515605
0.515605
0.515677
0.515749
0.515821
0.515893
0.515893
0.515966
0.516038
0.516111
0.516183
0.516183
0.516256
0.516328
0.516401
0.516473
0.516473
0.516546
0.516619
0.516691
0.516764
0.516764
0.516837
0.51691
0.516983
0.517056
0.517056
0.517129
0.517202
0.517275
0.517348
0.517348
0.517421
0.517494
0.517568
0.517641
0.517641
0.517714
0.517788
0.517861
0.517935
0.517935
0.518008
0.518082
0.518155
0.518229
0.518229
0.518303
0.518376
0.51845
0.518524
0.518524
0.518598
0.518671
0.518745
0.518819
0.518819
0.518893
0.518967
0.519041
0.519116
0.519116
0.51919
0.519264
0.519338
0.519413
0.519413
0.519487
0.519561
0.519636
0.51971
0.51971
0.519785
0.519859
0.519934
0.520008
0.520008
0.520083
0.520158
0.520232
0.520307
0.520307
0.520382
0.520457
0.520532
0.520607
0.520607
0.520682
0.520757
0.520832
0.520907
0.520907
0.520982
0.521058
0.521133
0.521208
0.521208
0.521283
0.521359
0.521434
0.52151
0.52151
0.521585
0.521661
0.521736
0.521812
0.521812
0.521888
0.521963
0.522039
0.522115
0.522115
0.522191
0.522267
0.522343
0.522419
0.522419
0.522495
0.522571
0.522647
0.522723
0.522723
0.522799
0.522875
0.522952
0.523028
0.523028
0.523104
0.523181
0.523257
0.523334
0.523334
0.52341
0.523487
0.523563
0.52364
0.52364
0.523717
0.523793
0.52387
0.523947
0.523947
0.524024
0.524101
0.524178
0.524255
0.524255
0.524332
0.524409
0.524486
0.524563
0.524563
0.52464
0.524717
0.524795
0.524872
0.524872
0.524949
0.525027
0.525104
0.525182
0.525182
0.525259
0.525337
0.525415
0.525492
0.525492
0.52557
0.525648
0.525726
0.525803
0.525803
0.525881
0.525959
0.526037
0.526115
0.526115
0.526193
0.526271
0.526349
0.526428
0.526428
0.526506
0.526584
0.526662
0.526741
0.526741
0.526819
0.526898
0.526976
0.527055
0.527055
0.527133
0.527212
0.527291
0.527369
0.527369
0.527448
0.527527
0.527606
0.527684
0.527684
0.527763
0.527842
0.527921
0.528
0.528
0.528079
0.528159
0.528238
0.528317
0.528317
0.528396
0.528476
0.528555
0.528634
0.528634
0.528714
0.528793
0.528873
0.528952
0.528952
0.529032
0.529112
0.529191
0.529271
0.529271
0.529351
0.529431
0.529511
0.52959
0.52959
0.52967
0.52975
0.52983
0.52991
0.52991
0.529991
0.530071
0.530151
0.530231
0.530231
0.530312
0.530392
0.530472
0.530553
0.530553
0.530633
0.530714
0.530794
0.530875
0.530875
0.530956
0.531036
0.531117
0.531198
0.531198
0.531279
0.531359
0.53144
0.531521
0.531521
0.531602
0.531683
0.531764
0.531846
0.531846
0.531927
0.532008
0.532089
0.532171
0.532171
0.532252
0.532333
0.532415
0.532496
0.532496
0.532578
0.532659
0.532741
0.532823
0.532823
0.532904
0.532986
0.533068
0.53315
0.53315
0.533232
0.533313
0.533395
0.533477
0.533477
0.53356
0.533642
0.533724
0.533806
0.533806
0.533888
0.53397
0.534053
0.534135
0.534135
0.534218
0.5343
0.534382
0.534465
0.534465
0.534548
0.53463
0.534713
0.534796
0.534796
0.534878
0.534961
0.535044
0.535127
0.535127
0.53521
0.535293
0.535376
0.535459
0.535459
0.535542
0.535625
0.535708
0.535792
0.535792
0.535875
0.535958
0.536042
0.536125
0.536125
0.536209
0.536292
0.536376
0.536459
0.536459
0.536543
0.536627
0.53671
0.536794
0.536794
0.536878
0.536962
0.537046
0.53713
0.53713
0.537214
0.537298
0.537382
0.537466
0.537466
0.53755
0.537634
0.537719
0.537803
0.537803
0.537887
0.537972
0.538056
0.538141
0.538141
0.538225
0.53831
0.538395
0.538479
0.538479
0.538564
0.538649
0.538733
0.538818
0.538818
0.538903
0.538988
0.539073
0.539158
0.539158
0.539243
0.539328
0.539414
0.539499
0.539499
0.539584
0.539669
0.539755
0.53984
0.53984
0.539926
0.540011
0.540097
0.540182
0.540182
0.540268
0.540353
0.540439
0.540525
0.540525
0.540611
0.540697
0.540782
0.540868
0.540868
0.540954
0.54104
0.541126
0.541213
0.541213
0.541299
0.541385
0.541471
0.541558
0.541558
0.541644
0.54173
0.541817
0.541903
0.541903
0.54199
0.542076
0.542163
0.54225
0.54225
0.542336
0.542423
0.54251
0.542597
0.542597
0.542684
0.542771
0.542858
0.542945
0.542945
0.543032
0.543119
0.543206
0.543293
0.543293
0.54338
0.543468
0.543555
0.543642
0.543642
0.54373
0.543817
0.543905
0.543992
0.543992
0.54408
0.544168
0.544255
0.544343
0.544343
0.544431
0.544519
0.544607
0.544695
0.544695
0.544783
0.544871
0.544959
0.545047
0.545047
0.545135
0.545223
0.545312
0.5454
0.5454
0.545488
0.545577
0.545665
0.545754
0.545754
0.545842
0.545931
0.546019
0.546108
0.546108
0.546197
0.546286
0.546374
0.546463
0.546463
0.546552
0.546641
0.54673
0.546819
0.546819
0.546908
0.546998
0.547087
0.547176
0.547176
0.547265
0.547355
0.547444
0.547533
0.547533
0.547623
0.547712
0.547802
0.547891
0.547891
0.547981
0.548071
0.548161
0.54825
0.54825
0.54834
0.54843
0.54852
0.54861
0.54861
0.5487
0.54879
0.54888
0.54897
0.54897
0.549061
0.549151
0.549241
0.549332
0.549332
0.549422
0.549512
0.549603
0.549693
0.549693
0.549784
0.549875
0.549965
0.550056
0.550056
0.550147
0.550238
0.550329
0.550419
0.550419
0.55051
0.550601
0.550692
0.550784
0.550784
0.550875
0.550966
0.551057
0.551148
0.551148
0.55124
0.551331
0.551423
0.551514
0.551514
0.551606
0.551697
0.551789
0.551881
0.551881
0.551972
0.552064
0.552156
0.552248
0.552248
0.55234
0.552432
0.552524
0.552616
0.552616
0.552708
0.5528
0.552892
0.552984
0.552984
0.553077
0.553169
0.553261
0.553354
0.553354
0.553446
0.553539
0.553631
0.553724
0.553724
0.553816
0.553909
0.554002
0.554095
0.554095
0.554188
0.554281
0.554373
0.554466
0.554466
0.554559
0.554653
0.554746
0.554839
0.554839
0.554932
0.555025
0.555119
0.555212
0.555212
0.555306
0.555399
0.555493
0.555586
0.555586
0.55568
0.555773
0.555867
0.555961
0.555961
0.556055
0.556149
0.556242
0.556336
0.556336
0.55643
0.556524
0.556619
0.556713
0.556713
0.556807
0.556901
0.556995
0.55709
0.55709
0.557184
0.557279
0.557373
0.557468
0.557468
0.557562
0.557657
0.557751
0.557846
0.557846
0.557941
0.558036
0.558131
0.558226
0.558226
0.55832
0.558415
0.558511
0.558606
0.558606
0.558701
0.558796
0.558891
0.558986
0.558986
0.559081
0.559176
0.559271
0.559366
0.559366
0.55946
0.559553
0.559644
0.559733
0.559733
0.55982
0.559896
0.55996
0.560013
0.560013
0.560041
0.560066
0.560088
0.560106
0.560106
0.560127
0.560147
0.560167
0.560186
0.560186
0.560206
0.560226
0.560246
0.560266
0.560266
0.560286
0.560306
0.560326
0.560346
0.560346
0.560366
0.560386
0.560406
0.560426
0.560426
0.560446
0.560466
0.560486
0.560506
0.560506
0.560526
0.560546
0.560566
0.560586
0.560586
0.560607
0.560627
0.560647
0.560667
0.560667
0.560687
0.560707
0.560727
0.560747
0.560747
0.560768
0.560788
0.560808
0.560828
0.560828
0.560848
0.560868
0.560889
0.560909
0.560909
0.560929
0.560949
0.560969
0.56099
0.56099
0.56101
0.56103
0.56105
0.56107
0.56107
0.561091
0.561111
0.561131
0.561151
0.561151
0.561171
0.56119
0.561209
0.561227
0.561227
0.561244
0.561259
0.56127
0.561279
0.561279
0.561283
0.561285
0.561286
0.561285
0.561285
0.561284
0.561283
0.561282
0.561281
0.561281
0.561281
0.56128