<?xml version="1.0"?>
<VTKFile type="UnstructuredGrid" version="0.1" byte_order="LittleEndian">
<UnstructuredGrid>
<Piece NumberOfPoints="5000" NumberOfCells="4000">
<PointData Scalars="Reaction 0">
<DataArray type="Float32" Name="Reaction 0" format="ascii">
0.522709
0.522709
0.52271
0.52271
0.52271
0.52271
0.52271
0.52271
0.522711
0.522711
0.522711
0.522711
0.522712
0.522712
0.522713
0.522713
0.522714
0.522714
0.522715
0.522716
0.522716
0.522717
0.522718
0.522719
0.52272
0.52272
0.522721
0.522722
0.522723
0.522724
0.522724
0.522725
0.522727
0.522728
0.522729
0.522729
0.522731
0.522732
0.522734
0.522735
0.522735
0.522737
0.522739
0.522741
0.522742
0.522742
0.522744
0.522746
0.522748
0.52275
0.52275
0.522752
0.522754
0.522756
0.522759
0.522759
0.522761
0.522763
0.522765
0.522768
0.522768
0.52277
0.522773
0.522775
0.522778
0.522778
0.522781
0.522783
0.522786
0.522789
0.522789
0.522792
0.522795
0.522798
0.522801
0.522801
0.522804
0.522807
0.52281
0.522813
0.522813
0.522817
0.52282
0.522823
0.522827
0.522827
0.52283
0.522834
0.522837
0.522841
0.522841
0.522845
0.522848
0.522852
0.522856
0.522856
0.52286
0.522864
0.522868
0.522872
0.522872
0.522876
0.52288
0.522884
0.522889
0.522889
0.522893
0.522897
0.522902
0.522906
0.522906
0.522911
0.522915
0.52292
0.522924
0.522924
0.522929
0.522934
0.522939
0.522943
0.522943
0.522948
0.522953
0.522958
0.522963
0.522963
0.522968
0.522974
0.522979
0.522984
0.522984
0.522989
0.522995
0.523
0.523006
0.523006
0.523011
0.523017
0.523022
0.523028
0.523028
0.523034
0.523039
0.523045
0.523051
0.523051
0.523057
0.523063
0.523069
0.523075
0.523075
0.523081
0.523087
0.523094
0.5231
0.5231
0.523106
0.523113
0.523119
0.523126
0.523126
0.523132
0.523139
0.523145
0.523152
0.523152
0.523159
0.523166
0.523172
0.523179
0.523179
0.523186
0.523193
0.5232
0.523207
0.523207
0.523214
0.523222
0.523229
0.523236
0.523236
0.523244
0.523251
0.523258
0.523266
0.523266
0.523273
0.523281
0.523289
0.523296
0.523296
0.523304
0.523312
0.52332
0.523328
0.523328
0.523336
0.523344
0.523352
0.52336
0.52336
0.523368
0.523376
0.523385
0.523393
0.523393
0.523401
0.52341
0.523418
0.523427
0.523427
0.523435
0.523444
0.523452
0.523461
0.523461
0.52347
0.523479
0.523488
0.523497
0.523497
0.523506
0.523515
0.523524
0.523533
0.523533
0.523542
0.523551
0.523561
0.52357
0.52357
0.523579
0.523589
0.523598
0.523608
0.523608
0.523617
0.523627
0.523637
0.523647
0.523647
0.523656
0.523666
0.523676
0.523686
0.523686
0.523696
0.523706
0.523716
0.523726
0.523726
0.523737
0.523747
0.523757
0.523768
0.523768
0.523778
0.523788
0.523799
0.523809
0.523809
0.52382
0.523831
0.523842
0.523852
0.523852
0.523863
0.523874
0.523885
0.523896
0.523896
0.523907
0.523918
0.523929
0.52394
0.52394
0.523952
0.523963
0.523974
0.523986
0.523986
0.523997
0.524009
0.52402
0.524032
0.524032
0.524043
0.524055
0.524067
0.524079
0.524079
0.52409
0.524102
0.524114
0.524126
0.524126
0.524138
0.524151
0.524163
0.524175
0.524175
0.524187
0.524199
0.524212
0.524224
0.524224
0.524237
0.524249
0.524262
0.524274
0.524274
0.524287
0.5243
0.524313
0.524326
0.524326
0.524338
0.524351
0.524364
0.524377
0.524377
0.52439
0.524404
0.524417
0.52443
0.52443
0.524443
0.524457
0.52447
0.524484
0.524484
0.524497
0.524511
0.524524
0.524538
0.524538
0.524552
0.524565
0.524579
0.524593
0.524593
0.524607
0.524621
0.524635
0.524649
0.524649
0.524663
0.524677
0.524692
0.524706
0.524706
0.52472
0.524735
0.524749
0.524763
0.524763
0.524778
0.524793
0.524807
0.524822
0.524822
0.524837
0.524851
0.524866
0.524881
0.524881
0.524896
0.524911
0.524926
0.524941
0.524941
0.524957
0.524972
0.524987
0.525002
0.525002
0.525018
0.525033
0.525049
0.525064
0.525064
0.52508
0.525095
0.525111
0.525127
0.525127
0.525143
0.525158
0.525174
0.52519
0.52519
0.525206
0.525222
0.525238
0.525255
0.525255
0.525271
0.525287
0.525303
0.52532
0.52532
0.525336
0.525352
0.525369
0.525386
0.525386
0.525402
0.525419
0.525436
0.525452
0.525452
0.525469
0.525486
0.525503
0.52552
0.52552
0.525537
0.525554
0.525571
0.525588
0.525588
0.525606
0.525623
0.52564
0.525658
0.525658
0.525675
0.525693
0.52571
0.525728
0.525728
0.525746
0.525763
0.525781
0.525799
0.525799
0.525817
0.525835
0.525853
0.525871
0.525871
0.525889
0.525907
0.525925
0.525943
0.525943
0.525962
0.52598
0.525998
0.526017
0.526017
0.526035
0.526054
0.526072
0.526091
0.526091
0.52611
0.526129
0.526147
0.526166
0.526166
0.526185
0.526204
0.526223
0.526242
0.526242
0.526261
0.526281
0.5263
0.526319
0.526319
0.526338
0.526358
0.526377
0.526397
0.526397
0.526416
0.526436
0.526456
0.526475
0.526475
0.526495
0.526515
0.526535
0.526555
0.526555
0.526575
0.526595
0.526615
0.526635
0.526635
0.526655
0.526675
0.526696
0.526716
0.526716
0.526736
0.526757
0.526777
0.526798
0.526798
0.526818
0.526839
0.52686
0.526881
0.526881
0.526901
0.526922
0.526943
0.526964
0.526964
0.526985
0.527006
0.527027
0.527049
0.527049
0.52707
0.527091
0.527112
0.527134
0.527134
0.527155
0.527177
0.527198
0.52722
0.52722
0.527242
0.527263
0.527285
0.527307
0.527307
0.527329
0.527351
0.527373
0.527395
0.527395
0.527417
0.527439
0.527461
0.527483
0.527483
0.527506
0.527528
0.527551
0.527573
0.527573
0.527596
0.527618
0.527641
0.527663
0.527663
0.527686
0.527709
0.527732
0.527755
0.527755
0.527778
0.527801
0.527824
0.527847
0.527847
0.52787
0.527893
0.527916
0.52794
0.52794
0.527963
0.527986
0.52801
0.528033
0.528033
0.528057
0.528081
0.528104
0.528128
0.528128
0.528152
0.528176
0.5282
0.528224
0.528224
0.528248
0.528272
0.528296
0.52832
0.52832
0.528344
0.528369
0.528393
0.528417
0.528417
0.528442
0.528466
0.528491
0.528515
0.528515
0.52854
0.528565
0.52859
0.528614
0.528614
0.528639
0.528664
0.528689
0.528714
0.528714
0.528739
0.528764
0.52879
0.528815
0.528815
0.52884
0.528865
0.528891
0.528916
0.528916
0.528942
0.528967
0.528993
0.529019
0.529019
0.529044
0.52907
0.529096
0.529122
0.529122
0.529148
0.529174
0.5292
0.529226
0.529226
0.529252
0.529279
0.529305
0.529331
0.529331
0.529358
0.529384
0.52941
0.529437
0.529437
0.529464
0.52949
0.529517
0.529544
0.529544
0.529571
0.529597
0.529624
0.529651
0.529651
0.529678
0.529705
0.529733
0.52976
0.52976
0.529787
0.529814
0.529842
0.529869
0.529869
0.529897
0.529924
0.529952
0.529979
0.529979
0.530007
0.530035
0.530063
0.53009
0.53009
0.530118
0.530146
0.530174
0.530202
0.530202
0.530231
0.530259
0.530287
0.530315
0.530315
0.530344
0.530372
0.5304
0.530429
0.530429
0.530457
0.530486
0.530515
0.530544
0.530544
0.530572
0.530601
0.53063
0.530659
0.530659
0.530688
0.530717
0.530746
0.530775
0.530775
0.530805
0.530834
0.530863
0.530893
0.530893
0.530922
0.530951
0.530981
0.531011
0.531011
0.53104
0.53107
0.5311
0.53113
0.53113
0.531159
0.531189
0.531219
0.531249
0.531249
0.53128
0.53131
0.53134
0.53137
0.53137
0.531401
0.531431
0.531461
0.531492
0.531492
0.531522
0.531553
0.531584
0.531614
0.531614
0.531645
0.531676
0.531707
0.531738
0.531738
0.531769
0.5318
0.531831
0.531862
0.531862
0.531893
0.531925
0.531956
0.531987
0.531987
0.532019
0.53205
0.532082
0.532113
0.532113
0.532145
0.532177
0.532208
0.53224
0.53224
0.532272
0.532304
0.532336
0.532368
0.532368
0.5324
0.532432
0.532465
0.532497
0.532497
0.532529
0.532562
0.532594
0.532626
0.532626
0.532659
0.532692
0.532724
0.532757
0.532757
0.53279
0.532823
0.532856
0.532888
0.532888
0.532921
0.532955
0.532988
0.533021
0.533021
0.533054
0.533087
0.533121
0.533154
0.533154
0.533187
0.533221
0.533255
0.533288
0.533288
0.533322
0.533356
0.533389
0.533423
0.533423
0.533457
0.533491
0.533525
0.533559
0.533559
0.533593
0.533627
0.533662
0.533696
0.533696
0.53373
0.533765
0.533799
0.533834
0.533834
0.533868
0.533903
0.533938
0.533972
0.533972
0.534007
0.534042
0.534077
0.534112
0.534112
0.534147
0.534182
0.534217
0.534252
0.534252
0.534288
0.534323
0.534358
0.534394
0.534394
0.534429
0.534465
0.5345
0.534536
0.534536
0.534572
0.534607
0.534643
0.534679
0.534679
0.534715
0.534751
0.534787
0.534823
0.534823
0.534859
0.534896
0.534932
0.534968
0.534968
0.535005
0.535041
0.535078
0.535114
0.535114
0.535151
0.535188
0.535224
0.535261
0.535261
0.535298
0.535335
0.535372
0.535409
0.535409
0.535446
0.535483
0.53552
0.535558
0.535558
0.535595
0.535632
0.53567
0.535707
0.535707
0.535745
0.535782
0.53582
0.535858
0.535858
0.535896
0.535933
0.535971
0.536009
0.536009
0.536047
0.536085
0.536123
0.536162
0.536162
0.5362
0.536238
0.536277
0.536315
0.536315
0.536353
0.536392
0.536431
0.536469
0.536469
0.536508
0.536547
0.536586
0.536624
0.536624
0.536663
0.536702
0.536741
0.53678
0.53678
0.53682
0.536859
0.536898
0.536938
0.536938
0.536977
0.537016
0.537056
0.537096
0.537096
0.537135
0.537175
0.537215
0.537254
0.537254
0.537294
0.537334
0.537374
0.537414
0.537414
0.537454
0.537495
0.537535
0.537575
0.537575
0.537615
0.537656
0.537696
0.537737
0.537737
0.537777
0.537818
0.537859
0.537899
0.537899
0.53794
0.537981
0.538022
0.538063
0.538063
0.538104
0.538145
0.538186
0.538228
0.538228
0.538269
0.53831
0.538352
0.538393
0.538393
0.538435
0.538476
0.538518
0.53856
0.53856
0.538601
0.538643
0.538685
0.538727
0.538727
0.538769
0.538811
0.538853
0.538895
0.538895
0.538938
0.53898
0.539022
0.539065
0.539065
0.539107
0.53915
0.539192
0.539235
0.539235
0.539278
0.53932
0.539363
0.539406
0.539406
0.539449
0.539492
0.539535
0.539578
0.539578
0.539621
0.539665
0.539708
0.539751
0.539751
0.539795
0.539838
0.539882
0.539925
0.539925
0.539969
0.540013
0.540057
0.540101
0.540101
0.540144
0.540188
0.540232
0.540277
0.540277
0.540321
0.540365
0.540409
0.540453
0.540453
0.540498
0.540542
0.540587
0.540631
0.540631
0.540676
0.540721
0.540766
0.54081
0.54081
0.540855
0.5409
0.540945
0.54099
0.54099
0.541035
0.541081
0.541126
0.541171
0.541171
0.541216
0.541262
0.541307
0.541353
0.541353
0.541399
0.541444
0.54149
0.541536
0.541536
0.541582
0.541627
0.541673
0.541719
0.541719
0.541766
0.541812
0.541858
0.541904
0.541904
0.541951
0.541997
0.542043
0.54209
0.54209
0.542137
0.542183
0.54223
0.542277
0.542277
0.542324
0.54237
0.542417
0.542464
0.542464
0.542511
0.542559
0.542606
0.542653
0.542653
0.5427
0.542748
0.542795
0.542843
0.542843
0.54289
0.542938
0.542986
0.543033
0.543033
0.543081
0.543129
0.543177
0.543225
0.543225
0.543273
0.543321
0.543369
0.543418
0.543418
0.543466
0.543514
0.543563
0.543611
0.543611
0.54366
0.543709
0.543757
0.543806
0.543806
0.543855
0.543904
0.543953
0.544002
0.544002
0.544051
0.5441
0.544149
0.544198
0.544198
0.544248
0.544297
0.544346
0.544396
0.544396
0.544446
0.544495
0.544545
0.544595
0.544595
0.544644
0.544694
0.544744
0.544794
0.544794
0.544844
0.544894
0.544945
0.544995
0.544995
0.545045
0.545096
0.545146
0.545197
0.545197
0.545247
0.545298
0.545348
0.545399
0.545399
0.54545
0.545501
0.545552
0.545603
0.545603
0.545654
0.545705
0.545756
0.545808
0.545808
0.545859
0.54591
0.545962
0.546013
0.546013
0.546065
0.546117
0.546168
0.54622
0.54622
0.546272
0.546324
0.546376
0.546428
0.546428
0.54648
0.546532
0.546584
0.546637
0.546637
0.546689
0.546742
0.546794
0.546847
0.546847
0.546899
0.546952
0.547005
0.547057
0.547057
0.54711
0.547163
0.547216
0.547269
0.547269
0.547322
0.547376
0.547429
0.547482
0.547482
0.547536
0.547589
0.547643
0.547696
0.547696
0.54775
0.547804
0.547857
0.547911
0.547911
0.547965
0.548019
0.548073
0.548127
0.548127
0.548181
0.548236
0.54829
0.548344
0.548344
0.548399
0.548453
0.548508
0.548562
0.548562
0.548617
0.548672
0.548727
0.548782
0.548782
0.548836
0.548892
0.548947
0.549002
0.549002
0.549057
0.549112
0.549168
0.549223
0.549223
0.549278
0.549334
0.54939
0.549445
0.549445
0.549501
0.549557
0.549613
0.549669
0.549669
0.549725
0.549781
0.549837
0.549893
0.549893
0.549949
0.550006
0.550062
0.550119
0.550119
0.550175
0.550232
0.550288
0.550345
0.550345
0.550402
0.550459
0.550516
0.550573
0.550573
0.55063
0.550687
0.550744
0.550801
0.550801
0.550859
0.550916
0.550974
0.551031
0.551031
0.551089
0.551146
0.551204
0.551262
0.551262
0.55132
0.551378
0.551436
0.551494
0.551494
0.551552
0.55161
0.551668
0.551727
0.551727
0.551785
0.551844
0.551902
0.551961
0.551961
0.552019
0.552078
0.552137
0.552196
0.552196
0.552255
0.552314
0.552373
0.552432
0.552432
0.552491
0.552551
0.55261
0.552669
0.552669
0.552729
0.552788
0.552848
0.552908
0.552908
0.552968
0.553027
0.553087
0.553147
0.553147
0.553207
0.553267
0.553328
0.553388
0.553388
0.553448
0.553508
0.553569
0.553629
0.553629
0.55369
0.553751
0.553811
0.553872
0.553872
0.553933
0.553994
0.554055
0.554116
0.554116
0.554177
0.554238
0.5543
0.554361
0.554361
0.554422
0.554484
0.554545
0.554607
0.554607
0.554669
0.554731
0.554792
0.554854
0.554854
0.554916
0.554978
0.55504
0.555103
0.555103
0.555165
0.555227
0.555289
0.555352
0.555352
0.555414
0.555477
0.55554
0.555602
0.555602
0.555665
0.555728
0.555791
0.555854
0.555854
0.555917
0.55598
0.556043
0.556107
0.556107
0.55617
0.556234
0.556297
0.556361
0.556361
0.556424
0.556488
0.556552
0.556616
0.556616
0.55668
0.556744
0.556808
0.556872
0.556872
0.556936
0.557
0.557065
0.557129
0.557129
0.557194
0.557258
0.557323
0.557387
0.557387
0.557452
0.557517
0.557582
0.557647
0.557647
0.557712
0.557777
0.557842
0.557908
0.557908
0.557973
0.558038
0.558104
0.558169
0.558169
0.558235
0.558301
0.558367
0.558432
0.558432
0.558498
0.558564
0.55863
0.558696
0.558696
0.558763
0.558829
0.558895
0.558962
0.558962
0.559028
0.559095
0.559161
0.559228
0.559228
0.559295
0.559361
0.559428
0.559495
0.559495
0.559561
0.559627
0.559692
0.559756
0.559756
0.55982
0.559878
0.559931
0.559979
0.559979
0.560008
0.560031
0.560049
0.560062
0.560062
0.560077
0.560091
0.560105
0.560119
0.560119
0.560133
0.560147
0.560162
0.560176
0.560176
0.56019
0.560204
0.560218
0.560232
0.560232
0.560247
0.560261
0.560275
0.560289
0.560289
0.560304
0.560318
0.560332
0.560347
0.560347
0.560361
0.560375
0.56039
0.560404
0.560404
0.560418
0.560433
0.560447
0.560462
0.560462
0.560476
0.56049
0.560505
0.560519
0.560519
0.560534
0.560548
0.560563
0.560577
0.560577
0.560592
0.560607
0.560621
0.560636
0.560636
0.56065
0.560665
0.560679
0.560694
0.560694
0.560709
0.560723
0.560738
0.560753
0.560753
0.560767
0.560782
0.560797
0.560811
0.560811
0.560826
0.560841
0.560856
0.56087
0.56087
0.560885
0.5609
0.560915
0.56093
0.56093
0.560944
0.560959
0.560974
0.560989
0.560989
0.561004
0.561019
0.561033
0.561048
0.561048
0.561063
0.561078
0.561093
0.561108
0.561108
0.561123
0.561138
0.561153
0.561168
0.561168
0.561182
0.561197
0.561212
0.561227
0.561227
0.561242
0.561257
0.561272
0.561287
0.561287
0.561302
0.561317
0.561332
0.561347
0.561347
0.561362
0.561377
0.561393
0.561408
0.561408
0.561423
0.561438
0.561453
0.561468
0.561468
0.561483
0.561498
0.561513
0.561528
0.561528
0.561543
0.561558
0.561574
0.561589
0.561589
0.561604
0.561619
0.561634
0.561649
0.561649
0.561664
0.56168
0.561695
0.56171
0.56171
0.561725
0.56174
0.561755
0.561771
0.561771
0.561786
0.561801
0.561816
0.561831
0.561831
0.561846
0.561861
0.561876
0.56189
0.56189
0.561905
0.561918
0.56193
0.56194
0.56194
0.561948
0.561954
0.561957
0.561958
0.561958
0.561958
0.561958
0.561957
0.561957
0.561957
0.561957
0.561956
0.561956
0.561955
0.561955
0.561955
0.561954
0.561954
0.561953
0.561953
0.561953
0.561952
0.561952
0.561951
0.561951
0.561951
0.56195
0.561949
0.561949
0.561949
0.561948
0.561948
0.561947
0.561946
0.561946
0.561946
0.561945
0.561944
0.561944
0.561944
0.561943
0.561942
0.561942
0.561941
0.561941
0.56194
0.561939
0.561939
0.561938
0.561938
0.561937
0.561936
0.561936
0.561935
0.561935
0.561934
0.561933
0.561932
0.561932
0.561932
0.561931
0.56193
0.561929
0.561928
0.561928
0.561927
0.561927
0.561926
0.561925
0.561925
0.561924
0.561923
0.561922
0.561921
0.561921
0.56192
0.561919
0.561919
0.561918
0.561918
0.561917
0.561916
0.561915
0.561914
0.561914
0.561913
0.561912
0.561911
0.56191
0.56191
0.561909
0.561908
0.561907
0.561906
0.561906
0.561905
0.561904
0.561903
0.561902
0.561902
0.561901
0.5619
0.561899
0.561898
0.561898
0.561897
0.561896
0.561895
0.561894
0.561894
0.561893
0.561892
0.561891
0.56189
0.56189
0.561889
0.561888
0.561887
0.561886
0.561886
0.561885
0.561884
0.561883
0.561882
0.561882
0.561881
0.56188
0.561879
0.561878
0.561878
0.561877
0.561876
0.561875
0.561873
0.561873
0.561872
0.561871
0.56187
0.561869
0.561869
0.561868
0.561867
0.561866
0.561865
0.561865
0.561864
0.561863
0.561862
0.56186
0.56186
0.561859
0.561858
0.561856
0.561855
0.561855
0.561854
0.561853
0.561851
0.56185
0.56185
0.561848
0.561847
0.561845
0.561844
0.561844
0.561842
0.561841
0.561839
0.561838
0.561838
0.561837
0.561835
0.561834
0.561832
0.561832
0.561831
0.561829
0.561828
0.561826
0.561826
0.561825
0.561823
0.561822
0.56182
0.56182
0.561819
0.561817
0.561816
0.561814
0.561814
0.561813
0.561811
0.56181
0.561808
0.561808
0.561807
0.561805
0.561804
0.561802
0.561802
0.561801
0.5618
0.561798
0.561797
0.561797
0.561795
0.561794
0.561792
0.561791
0.561791
0.561789
0.561788
0.561786
0.561785
0.561785
0.561783
0.561782
0.56178
0.561779
0.561779
0.561777
0.561776
0.561774
0.561773
0.561773
0.561771
0.56177
0.561769
0.561767
0.561767
0.561766
0.561764
0.561763
0.561761
0.561761
0.56176
0.561758
0.561757
0.561755
0.561755
0.561754
0.561752
0.561751
0.561749
0.561749
0.561748
0.561747
0.561745
0.561744
0.561744
0.561742
0.561741
0.561739
0.561738
0.561738
0.561736
0.561735
0.561733
0.561732
0.561732
0.56173
0.561729
0.561728
0.561726
0.561726
0.561725
0.561723
0.561722
0.56172
0.56172
0.561719
0.561717
0.561716
0.561714
0.561714
0.561713
0.561712
0.56171
0.561709
0.561709
0.561707
0.561706
0.561704
0.561703
0.561703
0.561702
0.5617
0.561699
0.561697
0.561697
0.561696
0.561695
0.561694
0.561694
0.561694
0.561693
0.561693
0.561692
0.561692
0.561692
0.561692
0.561691
0.561691
0.56169
0.56169
0.56169
0.56169
0.561689
0.561689
0.561689
0.561689
0.561688
0.561688
0.561687
0.561687
0.561687
0.561687
0.561686
0.561686
0.561686
0.561686
0.561685
0.561685
0.561684
0.561684
0.561684
0.561684
0.561683
0.561683
0.561683
0.561683
0.561682
0.561682
0.561682
0.561682
0.561681
0.561681
0.561681
0.56168
0.56168
0.56168
0.561679
0.561679
0.561679
0.561679
0.561678
0.561678
0.561678
0.561677
0.561677
0.561677
0.561677
0.561676
0.561676
0.561676
0.561676
0.561675
0.561675
0.561675
0.561675
0.561674
0.561674
0.561674
0.561673
0.561673
0.561673
0.561673
0.561672
0.561672
0.561672
0.561672
0.561671
0.561671
0.561671
0.561671
0.56167
0.56167
0.56167
0.56167
0.56167
0.561669
0.561669
0.561669
0.561668
0.561668
0.561668
0.561668
0.561667
0.561667
0.561667
0.561667
0.561666
0.561666
0.561666
0.561666
0.561665
0.561665
0.561665
0.561664
0.561664
0.561664
0.561664
0.561664
0.561663
0.561663
0.561663
0.561663
0.561662
0.561662
0.561662
0.561662
0.561661
0.561661
0.561661
0.561661
0.56166
0.56166
0.56166
0.56166
0.56166
0.561659
0.561659
0.561659
0.561659
0.561659
0.561659
0.561659
0.561659
0.561659
0.561659
0.561659
0.561659
0.561659
0.561659
0.561659
0.561659
0.561659
0.561659
0.561659
0.561659
0.561659
0.561659
0.561659
0.561659
0.561659
0.561659
0.561659
0.561659
0.561659
0.561659
0.561659
0.56166
0.56166
0.56166
0.56166
0.56166
0.56166
0.56166
0.56166
0.56166
0.56166
0.56166
0.56166
0.56166
0.56166
0.56166
0.56166
0.56166
0.56166
0.56166
0.56166
0.56166
0.56166
0.56166
0.56166
0.56166
0.56166
0.56166
0.56166
0.56166
0.561661
0.561661
0.561661
0.561661
0.561661
0.561661
0.561661
0.561661
0.561661
0.561661
0.561661
0.561661
0.561661
0.561661
0.561661
0.561661
0.561661
0.561661
0.561661
0.561661
0.561661
0.561661
0.561661
0.561662
0.561662
0.561662
0.561662
0.561662
0.561662
0.561662
0.561662
0.561662
0.561662
0.561662
0.561662
0.561662
0.561662
0.561662
0.561662
0.561662
0.561662
0.561662
0.561662
0.561662
0.561662
0.561662
0.561663
0.561663
0.561663
0.561663
0.561663
0.561663
0.561663
0.561663
0.561663
0.561663
0.561663
0.561663
0.561663
0.561663
0.561663
0.561663
0.561663
0.561663
0.561663
0.561663
0.561663
0.561663
0.561664
0.561664
0.561664
0.561664
0.561664
0.561664
0.561664
0.561664
0.561664
0.561664
0.561664
0.561664
0.561664
0.561664
0.561664
0.561665
0.561665
0.561665
0.561665
0.561665
0.561665
0.561665
0.561665
0.561665
0.561665
0.561665
0.561665
0.561665
0.561665
0.561665
0.561665
0.561665
0.561666
0.561666
0.561666
0.561666
0.561666
0.561666
0.561666
0.561666
0.561666
0.561666
0.561666
0.561666
0.561666
0.561666
0.561666
0.561667
0.561667
0.561667
0.561667
0.561667
0.561667
0.561667
0.561667
0.561667
0.561667
0.561667
0.561667
0.561667
0.561667
0.561667
0.561667
0.561668
0.561668
0.561668
0.561668
0.561668
0.561668
0.561668
0.561668
0.561668
0.561668
0.561668
0.561668
0.561668
0.561668
0.561668
0.561669
0.561669
0.561669
0.561669
0.561669
0.561669
0.561669
0.561669
0.561669
0.561669
0.561669
0.561669
0.561669
0.561669
0.561669
0.56167
0.56167
0.56167
0.56167
0.56167
0.56167
0.56167
0.56167
0.56167
0.56167
0.56167
0.56167
0.56167
0.56167
0.561671
0.561671
0.561671
0.561671
0.561671
0.561671
0.561671
0.561671
0.561671
0.561671
0.561671
0.561671
0.561671
0.561671
0.561671
0.561671
0.561672
0.561672
0.561672
0.561672
0.561672
0.561672
0.561672
0.561672
0.561672
0.561672
0.561672
0.561672
0.561672
0.561672
0.561672
0.561672
0.561672
0.561672
0.561672
0.561673
0.561673
0.561673
0.561673
0.561673
0.561673
0.561673
0.561673
0.561673
0.561673
0.561673
0.561673
0.561673
0.561673
0.561673
0.561673
0.561673
0.561674
0.561674
0.561674
0.561674
0.561674
0.561674
0.561674
0.561674
0.561674
0.561674
0.561674
0.561674
0.561674
0.561674
0.561674
0.561674
0.561675
0.561675
0.561675
0.561675
0.561675
0.561675
0.561675
0.561675
0.561675
0.561675
0.561675
0.561675
0.561675
0.561675
0.561675
0.561675
0.561675
0.561675
0.561676
0.561676
0.561676
0.561676
0.561676
0.561676
0.561676
0.561676
0.561676
0.561676
0.561676
0.561676
0.561676
0.561676
0.561676
0.561676
0.561677
0.561677
0.561677
0.561677
0.561677
0.561677
0.561677
0.561677
0.561677
0.561677
0.561677
0.561677
0.561677
0.561677
0.561677
0.561677
0.561677
0.561677
0.561678
0.561678
0.561678
0.561678
0.561678
0.561678
0.561678
0.561678
0.561678
0.561678
0.561678
0.561678
0.561678
0.561678
0.561678
0.561679
0.561679
0.561679
0.561679
0.561679
0.561679
0.561679
0.561679
0.561679
0.561679
0.561679
0.561679
0.561679
0.561679
0.561679
0.561679
0.561679
0.56168
0.56168
0.56168
0.56168
0.56168
0.56168
0.56168
0.56168
0.56168
0.56168
0.56168
0.56168
0.56168
0.56168
0.56168
0.56168
0.561681
0.561681
0.561681
0.561681
0.561681
0.561681
0.561681
0.561681
0.561681
0.561681
0.561681
0.561681
0.561681
0.561681
0.561681
0.561682
0.561682
0.561682
0.561682
0.561682
0.561682
0.561682
0.561682
0.561682
0.561682
0.561682
0.561682
0.561682
0.561682
0.561682
0.561682
0.561682
0.561683
0.561683
0.561683
0.561683
0.561683
0.561683
0.561683
0.561683
0.561683
0.561683
0.561683
0.561683
0.561683
0.561683
0.561683
0.561684
0.561684
0.561684
0.561684
0.561684
0.561684
0.561684
0.561684
0.561684
0.561684
0.561684
0.561684
0.561684
0.561684
0.561684
0.561685
0.561685
0.561685
0.561685
0.561685
0.561685
0.561685
0.561685
0.561685
0.561685
0.561685
0.561685
0.561685
0.561686
0.561686
0.561686
0.561686
0.561686
0.561686
0.561686
0.561686
0.561686
0.561686
0.561686
0.561686
0.561686
0.561686
0.561686
0.561687
0.561687
0.561687
0.561687
0.561687
0.561687
0.561687
0.561687
0.561687
0.561687
0.561687
0.561687
0.561687
0.561687
0.561688
0.561688
0.561688
0.561688
0.561688
0.561688
0.561688
0.561688
0.561688
0.561688
0.561688
0.561688
0.561688
0.561689
0.561689
0.561689
0.561689
0.561689
0.561689
0.561689
0.561689
0.561689
0.561689
0.561689
0.561689
0.561689
0.56169
0.56169
0.56169
0.56169
0.56169
0.56169
0.56169
0.56169
0.56169
0.56169
0.56169
0.56169
0.56169
0.56169
0.561691
0.561691
0.561691
0.561691
0.561691
0.561691
0.561691
0.561691
0.561691
0.561691
0.561691
0.561691
0.561691
0.561692
0.561692
0.561692
0.561692
0.561692
0.561692
0.561692
0.561692
0.561692
0.561692
0.561692
0.561692
0.561693
0.561693
0.561693
0.561693
0.561693
0.561693
0.561693
0.561693
0.561693
0.561693
0.561693
0.561693
0.561693
0.561694
0.561694
0.561694
0.561694
0.561694
0.561694
0.561694
0.561694
0.561694
0.561694
0.561694
0.561694
0.561695
0.561695
0.561695
0.561695
0.561695
0.561695
0.561695
0.561695
0.561695
0.561695
0.561695
0.561696
0.561696
0.561696
0.561696
0.561696
0.561696
0.561696
0.561696
0.561696
0.561696
0.561696
0.561696
0.561696
0.561697
0.561697
0.561697
0.561697
0.561697
0.561697
0.561697
0.561697
0.561697
0.561697
0.561697
0.561698
0.561698
0.561698
0.561698
0.561698
0.561698
0.561698
0.561698
0.561698
0.561698
0.561698
0.561699
0.561699
0.561699
0.561699
0.561699
0.561699
0.561699
0.561699
0.561699
0.561699
0.561699
0.561699
0.5617
0.5617
0.5617
0.5617
0.5617
0.5617
0.5617
0.5617
0.5617
0.5617
0.5617
0.561701
0.561701
0.561701
0.561701
0.561701
0.561701
0.561701
0.561701
0.561701
0.561701
0.561701
0.561702
0.561702
0.561702
0.561702
0.561702
0.561702
0.561702
0.561702
0.561702
0.561702
0.561703
0.561703
0.561703
0.561703
0.561703
0.561703
0.561703
0.561703
0.561703
0.561703
0.561703
0.561704
0.561704
0.561704
0.561704
0.561704
0.561704
0.561704
0.561704
0.561704
0.561704
0.561705
0.561705
0.561705
0.561705
0.561705
0.561705
0.561705
0.561705
0.561705
0.561705
0.561706
0.561706
0.561706
0.561706
0.561706
0.561706
0.561706
0.561706
0.561706
0.561706
0.561706
0.561706
0.561707
0.561707
0.561707
0.561707
0.561707
0.561707
0.561707
0.561707
0.561707
0.561707
0.561708
0.561708
0.561708
0.561708
0.561708
0.561708
0.561708
0.561708
0.561708
0.561708
0.561709
0.561709
0.561709
0.561709
0.561709
0.561709
0.561709
0.561709
0.561709
0.561709
0.56171
0.56171
0.56171
0.56171
0.56171
0.56171
0.56171
0.56171
0.56171
0.56171
0.561711
0.561711
0.561711
0.561711
0.561711
0.561711
0.561711
0.561711
0.561712
0.561712
0.561712
0.561712
0.561712
0.561712
0.561712
0.561712
0.561712
0.561712
0.561713
0.561713
0.561713
0.561713
0.561713
0.561713
0.561713
0.561713
0.561713
0.561713
0.561714
0.561714
0.561714
0.561714
0.561714
0.561714
0.561714
0.561714
0.561714
0.561715
0.561715
0.561715
0.561715
0.561715
0.561715
0.561715
0.561715
0.561715
0.561715
0.561716
0.561716
0.561716
0.561716
0.561716
0.561716
0.561716
0.561716
0.561716
0.561717
0.561717
0.561717
0.561717
0.561717
0.561717
0.561717
0.561717
0.561717
0.561718
0.561718
0.561718
0.561718
0.561718
0.561718
0.561718
0.561718
0.561719
0.561719
0.561719
0.561719
0.561719
0.561719
0.561719
0.561719
0.561719
0.561719
0.56172
0.56172
0.56172
0.56172
0.56172
0.56172
0.56172
0.56172
0.56172
0.561721
0.561721
0.561721
0.561721
0.561721
0.561721
0.561721
0.561721
0.561721
0.561722
0.561722
0.561722
0.561722
0.561722
0.561722
0.561722
0.561722
0.561722
0.561723
0.561723
0.561723
0.561723
0.561723
0.561723
0.561723
0.561723
0.561724
0.561724
0.561724
0.561724
0.561724
0.561724
0.561724
0.561724
0.561725
0.561725
0.561725
0.561725
0.561725
0.561725
0.561725
0.561725
0.561725
0.561726
0.561726
0.561726
0.561726
0.561726
0.561726
0.561726
0.561726
0.561727
0.561727
0.561727
0.561727
0.561727
0.561727
0.561727
0.561727
0.561727
0.561728
0.561728
0.561728
0.561728
0.561728
0.561728
0.561728
0.561728
0.561729
0.561729
0.561729
0.561729
0.561729
0.561729
0.561729
0.561729
0.56173
0.56173
0.56173
0.56173
0.56173
0.56173
0.56173
0.56173
0.561731
0.561731
0.561731
0.561731
0.561731
0.561731
0.561731
0.561731
0.561731
0.561732
0.561732
0.561732
0.561732
0.561732
0.561732
0.561732
0.561733
0.561733
0.561733
0.561733
0.561733
0.561733
0.561733
0.561733
0.561734
0.561734
0.561734
0.561734
0.561734
0.561734
0.561734
0.561734
0.561735
0.561735
0.561735
0.561735
0.561735
0.561735
0.561735
0.561735
0.561736
0.561736
0.561736
0.561736
0.561736
0.561736
0.561736
0.561737
0.561737
0.561737
0.561737
0.561737
0.561737
0.561737
0.561737
0.561738
0.561738
0.561738
0.561738
0.561738
0.561738
0.561738
0.561739
0.561739
0.561739
0.561739
0.561739
0.561739
0.561739
0.561739
0.56174
0.56174
0.56174
0.56174
0.56174
0.56174
0.56174
0.56174
0.56174
0.561741
0.561741
0.561741
0.561741
0.561741
0.561741
0.561741
0.561742
0.561742
0.561742
0.561742
0.561742
0.561742
0.561743
0.561743
0.561743
0.561743
0.561743
0.561743
0.561743
0.561743
0.561744
0.561744
0.561744
0.561744
0.561744
0.561744
0.561744
0.561745
0.561745
0.561745
0.561745
0.561745
0.561745
0.561745
0.561745
0.561746
0.561746
0.561746
0.561746
0.561746
0.561746
0.561746
0.561747
0.561747
0.561747
0.561747
0.561747
0.561747
0.561747
0.561747
0.561748
0.561748
0.561748
0.561748
0.561748
0.561748
0.561749
0.561749
0.561749
0.561749
0.561749
0.561749
0.561749
0.561749
0.56175
0.56175
0.56175
0.56175
0.56175
0.56175
0.56175
0.561751
0.561751
0.561751
0.561751
0.561751
0.561751
0.561752
0.561752
0.561752
0.561752
0.561752
0.561752
0.561752
0.561752
0.561753
0.561753
0.561753
0.561753
0.561753
0.561753
0.561754
0.561754
0.561754
0.561754
0.561754
0.561754
0.561754
0.561754
0.561755
0.561755
0.561755
0.561755
0.561755
0.561755
0.561756
0.561756
0.561756
0.561756
0.561756
0.561756
0.561756
0.561757
0.561757
0.561757
0.561757
0.561757
0.561757
0.561757
0.561758
0.561758
0.561758
0.561758
0.561758
0.561758
0.561759
0.561759
0.561759
0.561759
0.561759
0.561759
0.561759
0.56176
0.56176
0.56176
0.56176
0.56176
0.56176
0.56176
0.561761
0.561761
0.561761
0.561761
0.561761
0.561761
0.561762
0.561762
0.561762
0.561762
0.561762
0.561762
0.561763
0.561763
0.561763
0.561763
0.561763
0.561763
0.561763
0.561763
0.561764
0.561764
0.561764
0.561764
0.561764
0.561764
0.561765
0.561765
0.561765
0.561765
0.561765
0.561765
0.561766
0.561766
0.561766
0.561766
0.561766
0.561766
0.561767
0.561767
0.561767
0.561767
0.561767
0.561767
0.561767
0.561768
0.561768
0.561768
0.561768
0.561768
0.561768
0.561769
0.561769
0.561769
0.561769
0.561769
0.561769
0.56177
0.56177
0.56177
0.56177
0.56177
0.56177
0.561771
0.561771
0.561771
0.561771
0.561771
0.561771
0.561771
0.561772
0.561772
0.561772
0.561772
0.561772
0.561772
0.561773
0.561773
0.561773
0.561773
0.561773
0.561773
0.561774
0.561774
0.561774
0.561774
0.561774
0.561774
0.561775
0.561775
0.561775
0.561775
0.561775
0.561775
0.561775
0.561776
0.561776
0.561776
0.561776
0.561776
0.561776
0.561777
0.561777
0.561777
0.561777
0.561777
0.561777
0.561778
0.561778
0.561778
0.561778
0.561778
0.561778
0.561779
0.561779
0.561779
0.561779
0.561779
0.56178
0.56178
0.56178
0.56178
0.56178
0.56178
0.56178
0.561781