<?xml version="1.0"?>
<VTKFile type="UnstructuredGrid" version="0.1" byte_order="LittleEndian">
<UnstructuredGrid>
<Piece NumberOfPoints="5000" NumberOfCells="4000">
<PointData Scalars="Reaction 0">
<DataArray type="Float32" Name="Reaction 0" format="ascii">
0.573606
0.573606
0.573606
0.573606
0.573606
0.573606
0.573606
0.573606
0.573606
0.573606
0.573606
0.573606
0.573606
0.573606
0.573606
0.573606
0.573606
0.573606
0.573606
0.573606
0.573606
0.573606
0.573606
0.573606
0.573606
0.573606
0.573606
0.573607
0.573607
0.573607
0.573607
0.573607
0.573607
0.573607
0.573607
0.573607
0.573607
0.573607
0.573608
0.573608
0.573608
0.573608
0.573608
0.573608
0.573608
0.573608
0.573608
0.573609
0.573609
0.573609
0.573609
0.573609
0.573609
0.57361
0.57361
0.57361
0.57361
0.57361
0.57361
0.573611
0.573611
0.573611
0.573611
0.573611
0.573611
0.573611
0.573612
0.573612
0.573612
0.573612
0.573612
0.573613
0.573613
0.573613
0.573613
0.573613
0.573614
0.573614
0.573614
0.573614
0.573614
0.573615
0.573615
0.573615
0.573616
0.573616
0.573616
0.573616
0.573616
0.573617
0.573617
0.573617
0.573617
0.573618
0.573618
0.573618
0.573618
0.573619
0.573619
0.573619
0.573619
0.57362
0.57362
0.57362
0.573621
0.573621
0.573621
0.573622
0.573622
0.573622
0.573622
0.573623
0.573623
0.573623
0.573624
0.573624
0.573624
0.573625
0.573625
0.573625
0.573625
0.573626
0.573626
0.573627
0.573627
0.573627
0.573628
0.573628
0.573629
0.573629
0.573629
0.573629
0.57363
0.57363
0.573631
0.573631
0.573631
0.573632
0.573632
0.573633
0.573633
0.573633
0.573634
0.573634
0.573635
0.573635
0.573635
0.573636
0.573636
0.573637
0.573637
0.573637
0.573638
0.573638
0.573639
0.573639
0.573639
0.57364
0.57364
0.573641
0.573641
0.573642
0.573642
0.573643
0.573643
0.573643
0.573644
0.573644
0.573645
0.573646
0.573646
0.573646
0.573647
0.573647
0.573648
0.573648
0.573649
0.573649
0.57365
0.573651
0.573651
0.573651
0.573652
0.573652
0.573653
0.573653
0.573654
0.573654
0.573655
0.573656
0.573656
0.573656
0.573657
0.573658
0.573658
0.573658
0.573659
0.57366
0.57366
0.573661
0.573661
0.573662
0.573662
0.573663
0.573664
0.573664
0.573665
0.573665
0.573666
0.573667
0.573667
0.573668
0.573668
0.573669
0.57367
0.57367
0.573671
0.573671
0.573672
0.573673
0.573673
0.573674
0.573674
0.573675
0.573676
0.573676
0.573677
0.573677
0.573678
0.573679
0.573679
0.57368
0.573681
0.573681
0.573682
0.573682
0.573683
0.573684
0.573685
0.573686
0.573686
0.573686
0.573687
0.573688
0.573689
0.573689
0.57369
0.573691
0.573692
0.573692
0.573692
0.573693
0.573694
0.573695
0.573696
0.573696
0.573697
0.573698
0.573699
0.5737
0.5737
0.5737
0.573701
0.573702
0.573703
0.573703
0.573704
0.573705
0.573706
0.573707
0.573707
0.573708
0.573709
0.57371
0.573711
0.573711
0.573712
0.573713
0.573714
0.573715
0.573715
0.573716
0.573717
0.573718
0.573719
0.573719
0.57372
0.573721
0.573722
0.573723
0.573723
0.573724
0.573725
0.573726
0.573727
0.573727
0.573728
0.573729
0.57373
0.573731
0.573731
0.573732
0.573733
0.573734
0.573735
0.573735
0.573736
0.573737
0.573738
0.573739
0.573739
0.573741
0.573742
0.573743
0.573744
0.573744
0.573745
0.573746
0.573747
0.573748
0.573748
0.573749
0.573751
0.573752
0.573753
0.573753
0.573754
0.573755
0.573756
0.573757
0.573757
0.573759
0.57376
0.573761
0.573762
0.573762
0.573763
0.573764
0.573766
0.573767
0.573767
0.573768
0.573769
0.57377
0.573772
0.573772
0.573773
0.573774
0.573775
0.573777
0.573777
0.573778
0.573779
0.57378
0.573781
0.573781
0.573783
0.573784
0.573785
0.573786
0.573786
0.573788
0.573789
0.57379
0.573791
0.573791
0.573793
0.573794
0.573795
0.573797
0.573797
0.573798
0.573799
0.573801
0.573802
0.573802
0.573803
0.573805
0.573806
0.573807
0.573807
0.573809
0.57381
0.573811
0.573813
0.573813
0.573814
0.573815
0.573817
0.573818
0.573818
0.57382
0.573821
0.573822
0.573824
0.573824
0.573825
0.573827
0.573828
0.573829
0.573829
0.573831
0.573832
0.573834
0.573835
0.573835
0.573836
0.573838
0.573839
0.573841
0.573841
0.573842
0.573844
0.573845
0.573847
0.573847
0.573848
0.57385
0.573851
0.573853
0.573853
0.573854
0.573856
0.573857
0.573859
0.573859
0.57386
0.573862
0.573863
0.573865
0.573865
0.573866
0.573868
0.573869
0.573871
0.573871
0.573872
0.573874
0.573875
0.573877
0.573877
0.573878
0.57388
0.573882
0.573883
0.573883
0.573885
0.573886
0.573888
0.57389
0.57389
0.573891
0.573893
0.573894
0.573896
0.573896
0.573898
0.573899
0.573901
0.573902
0.573902
0.573904
0.573906
0.573907
0.573909
0.573909
0.573911
0.573912
0.573914
0.573916
0.573916
0.573917
0.573919
0.573921
0.573922
0.573922
0.573924
0.573926
0.573927
0.573929
0.573929
0.573931
0.573933
0.573934
0.573936
0.573936
0.573938
0.57394
0.573941
0.573943
0.573943
0.573945
0.573947
0.573948
0.57395
0.57395
0.573952
0.573954
0.573955
0.573957
0.573957
0.573959
0.573961
0.573963
0.573964
0.573964
0.573966
0.573968
0.57397
0.573972
0.573972
0.573973
0.573975
0.573977
0.573979
0.573979
0.573981
0.573983
0.573984
0.573986
0.573986
0.573988
0.57399
0.573992
0.573994
0.573994
0.573996
0.573998
0.573999
0.574001
0.574001
0.574003
0.574005
0.574007
0.574009
0.574009
0.574011
0.574013
0.574015
0.574017
0.574017
0.574019
0.574021
0.574022
0.574024
0.574024
0.574026
0.574028
0.57403
0.574032
0.574032
0.574034
0.574036
0.574038
0.57404
0.57404
0.574042
0.574044
0.574046
0.574048
0.574048
0.57405
0.574052
0.574054
0.574056
0.574056
0.574058
0.57406
0.574062
0.574065
0.574065
0.574067
0.574069
0.574071
0.574073
0.574073
0.574075
0.574077
0.574079
0.574081
0.574081
0.574083
0.574085
0.574087
0.574089
0.574089
0.574092
0.574094
0.574096
0.574098
0.574098
0.5741
0.574102
0.574104
0.574107
0.574107
0.574109
0.574111
0.574113
0.574115
0.574115
0.574117
0.57412
0.574122
0.574124
0.574124
0.574126
0.574128
0.57413
0.574133
0.574133
0.574135
0.574137
0.574139
0.574142
0.574142
0.574144
0.574146
0.574148
0.57415
0.57415
0.574153
0.574155
0.574157
0.57416
0.57416
0.574162
0.574164
0.574166
0.574169
0.574169
0.574171
0.574173
0.574176
0.574178
0.574178
0.57418
0.574182
0.574185
0.574187
0.574187
0.574189
0.574192
0.574194
0.574196
0.574196
0.574199
0.574201
0.574204
0.574206
0.574206
0.574208
0.574211
0.574213
0.574215
0.574215
0.574218
0.57422
0.574223
0.574225
0.574225
0.574227
0.57423
0.574232
0.574235
0.574235
0.574237
0.574239
0.574242
0.574244
0.574244
0.574247
0.574249
0.574252
0.574254
0.574254
0.574257
0.574259
0.574262
0.574264
0.574264
0.574267
0.574269
0.574272
0.574274
0.574274
0.574277
0.574279
0.574282
0.574284
0.574284
0.574287
0.574289
0.574292
0.574294
0.574294
0.574297
0.574299
0.574302
0.574305
0.574305
0.574307
0.57431
0.574312
0.574315
0.574315
0.574317
0.57432
0.574323
0.574325
0.574325
0.574328
0.574331
0.574333
0.574336
0.574336
0.574338
0.574341
0.574344
0.574346
0.574346
0.574349
0.574352
0.574354
0.574357
0.574357
0.57436
0.574362
0.574365
0.574368
0.574368
0.57437
0.574373
0.574376
0.574379
0.574379
0.574381
0.574384
0.574387
0.574389
0.574389
0.574392
0.574395
0.574398
0.5744
0.5744
0.574403
0.574406
0.574409
0.574411
0.574411
0.574414
0.574417
0.57442
0.574423
0.574423
0.574425
0.574428
0.574431
0.574434
0.574434
0.574437
0.574439
0.574442
0.574445
0.574445
0.574448
0.574451
0.574454
0.574457
0.574457
0.574459
0.574462
0.574465
0.574468
0.574468
0.574471
0.574474
0.574477
0.57448
0.57448
0.574482
0.574485
0.574488
0.574491
0.574491
0.574494
0.574497
0.5745
0.574503
0.574503
0.574506
0.574509
0.574512
0.574515
0.574515
0.574517
0.57452
0.574523
0.574526
0.574526
0.574529
0.574533
0.574536
0.574539
0.574539
0.574542
0.574545
0.574548
0.574551
0.574551
0.574554
0.574557
0.57456
0.574563
0.574563
0.574566
0.574569
0.574572
0.574575
0.574575
0.574578
0.574581
0.574584
0.574588
0.574588
0.574591
0.574594
0.574597
0.5746
0.5746
0.574603
0.574606
0.574609
0.574613
0.574613
0.574616
0.574619
0.574622
0.574625
0.574625
0.574628
0.574631
0.574635
0.574638
0.574638
0.574641
0.574644
0.574647
0.574651
0.574651
0.574654
0.574657
0.57466
0.574663
0.574663
0.574667
0.57467
0.574673
0.574676
0.574676
0.57468
0.574683
0.574686
0.574689
0.574689
0.574693
0.574696
0.574699
0.574703
0.574703
0.574706
0.574709
0.574713
0.574716
0.574716
0.574719
0.574722
0.574726
0.574729
0.574729
0.574733
0.574736
0.574739
0.574743
0.574743
0.574746
0.574749
0.574753
0.574756
0.574756
0.574759
0.574763
0.574766
0.57477
0.57477
0.574773
0.574776
0.57478
0.574783
0.574783
0.574787
0.57479
0.574794
0.574797
0.574797
0.574801
0.574804
0.574807
0.574811
0.574811
0.574814
0.574818
0.574821
0.574825
0.574825
0.574828
0.574832
0.574835
0.574839
0.574839
0.574842
0.574846
0.57485
0.574853
0.574853
0.574857
0.57486
0.574864
0.574867
0.574867
0.574871
0.574874
0.574878
0.574882
0.574882
0.574885
0.574889
0.574892
0.574896
0.574896
0.5749
0.574903
0.574907
0.57491
0.57491
0.574914
0.574918
0.574921
0.574925
0.574925
0.574929
0.574932
0.574936
0.57494
0.57494
0.574943
0.574947
0.574951
0.574955
0.574955
0.574958
0.574962
0.574966
0.574969
0.574969
0.574973
0.574977
0.574981
0.574984
0.574984
0.574988
0.574992
0.574996
0.574999
0.574999
0.575003
0.575007
0.575011
0.575015
0.575015
0.575018
0.575022
0.575026
0.57503
0.57503
0.575034
0.575038
0.575041
0.575045
0.575045
0.575049
0.575053
0.575057
0.575061
0.575061
0.575065
0.575068
0.575072
0.575076
0.575076
0.57508
0.575084
0.575088
0.575092
0.575092
0.575096
0.5751
0.575104
0.575108
0.575108
0.575112
0.575115
0.575119
0.575123
0.575123
0.575127
0.575131
0.575135
0.575139
0.575139
0.575143
0.575147
0.575151
0.575155
0.575155
0.575159
0.575163
0.575167
0.575171
0.575171
0.575176
0.57518
0.575184
0.575188
0.575188
0.575192
0.575196
0.5752
0.575204
0.575204
0.575208
0.575212
0.575216
0.57522
0.57522
0.575224
0.575229
0.575233
0.575237
0.575237
0.575241
0.575245
0.575249
0.575253
0.575253
0.575258
0.575262
0.575266
0.57527
0.57527
0.575274
0.575278
0.575283
0.575287
0.575287
0.575291
0.575295
0.575299
0.575304
0.575304
0.575308
0.575312
0.575316
0.575321
0.575321
0.575325
0.575329
0.575334
0.575338
0.575338
0.575342
0.575347
0.575351
0.575355
0.575355
0.57536
0.575364
0.575368
0.575373
0.575373
0.575377
0.575381
0.575386
0.57539
0.57539
0.575394
0.575399
0.575403
0.575408
0.575408
0.575412
0.575416
0.575421
0.575425
0.575425
0.57543
0.575434
0.575438
0.575443
0.575443
0.575447
0.575452
0.575456
0.575461
0.575461
0.575465
0.57547
0.575474
0.575479
0.575479
0.575483
0.575488
0.575492
0.575497
0.575497
0.575501
0.575506
0.57551
0.575515
0.575515
0.575519
0.575524
0.575529
0.575533
0.575533
0.575538
0.575542
0.575547
0.575551
0.575551
0.575556
0.575561
0.575565
0.57557
0.57557
0.575575
0.575579
0.575584
0.575588
0.575588
0.575593
0.575598
0.575602
0.575607
0.575607
0.575612
0.575617
0.575621
0.575626
0.575626
0.575631
0.575635
0.57564
0.575645
0.575645
0.57565
0.575654
0.575659
0.575664
0.575664
0.575669
0.575673
0.575678
0.575683
0.575683
0.575688
0.575692
0.575697
0.575702
0.575702
0.575707
0.575712
0.575717
0.575721
0.575721
0.575726
0.575731
0.575736
0.575741
0.575741
0.575746
0.575751
0.575755
0.57576
0.57576
0.575765
0.57577
0.575775
0.57578
0.57578
0.575785
0.57579
0.575795
0.5758
0.5758
0.575805
0.57581
0.575815
0.57582
0.57582
0.575825
0.57583
0.575835
0.57584
0.57584
0.575845
0.57585
0.575855
0.57586
0.57586
0.575865
0.57587
0.575875
0.57588
0.57588
0.575885
0.57589
0.575895
0.5759
0.5759
0.575905
0.57591
0.575915
0.575921
0.575921
0.575926
0.575931
0.575936
0.575941
0.575941
0.575946
0.575951
0.575957
0.575962
0.575962
0.575967
0.575972
0.575977
0.575982
0.575982
0.575988
0.575993
0.575998
0.576003
0.576003
0.576009
0.576014
0.576019
0.576024
0.576024
0.57603
0.576035
0.57604
0.576045
0.576045
0.576051
0.576056
0.576061
0.576066
0.576066
0.576072
0.576077
0.576082
0.576088
0.576088
0.576093
0.576098
0.576104
0.576109
0.576109
0.576114
0.57612
0.576125
0.576131
0.576131
0.576136
0.576141
0.576147
0.576152
0.576152
0.576158
0.576163
0.576169
0.576174
0.576174
0.57618
0.576185
0.576191
0.576196
0.576196
0.576202
0.576207
0.576213
0.576218
0.576218
0.576224
0.576229
0.576235
0.57624
0.57624
0.576246
0.576252
0.576257
0.576263
0.576263
0.576268
0.576274
0.57628
0.576285
0.576285
0.576291
0.576296
0.576302
0.576308
0.576308
0.576313
0.576319
0.576325
0.57633
0.57633
0.576336
0.576342
0.576347
0.576353
0.576353
0.576359
0.576364
0.57637
0.576376
0.576376
0.576382
0.576387
0.576393
0.576399
0.576399
0.576405
0.57641
0.576416
0.576422
0.576422
0.576428
0.576434
0.576439
0.576445
0.576445
0.576451
0.576457
0.576463
0.576469
0.576469
0.576474
0.57648
0.576486
0.576492
0.576492
0.576498
0.576504
0.57651
0.576516
0.576516
0.576522
0.576527
0.576533
0.576539
0.576539
0.576545
0.576551
0.576557
0.576563
0.576563
0.576569
0.576575
0.576581
0.576587
0.576587
0.576593
0.576599
0.576605
0.576611
0.576611
0.576617
0.576623
0.576629
0.576635
0.576635
0.576642
0.576648
0.576654
0.57666
0.57666
0.576666
0.576672
0.576678
0.576684
0.576684
0.57669
0.576697
0.576703
0.576709
0.576709
0.576715
0.576721
0.576727
0.576734
0.576734
0.57674
0.576746
0.576752
0.576758
0.576758
0.576765
0.576771
0.576777
0.576783
0.576783
0.57679
0.576796
0.576802
0.576809
0.576809
0.576815
0.576821
0.576827
0.576834
0.576834
0.57684
0.576846
0.576853
0.576859
0.576859
0.576866
0.576872
0.576878
0.576885
0.576885
0.576891
0.576897
0.576904
0.57691
0.57691
0.576917
0.576923
0.57693
0.576936
0.576936
0.576942
0.576949
0.576955
0.576962
0.576962
0.576968
0.576975
0.576981
0.576988
0.576988
0.576994
0.577001
0.577007
0.577014
0.577014
0.57702
0.577027
0.577034
0.57704
0.57704
0.577047
0.577053
0.57706
0.577067
0.577067
0.577073
0.57708
0.577087
0.577093
0.577093
0.5771
0.577107
0.577113
0.57712
0.57712
0.577127
0.577134
0.57714
0.577147
0.577147
0.577154
0.577161
0.577167
0.577174
0.577174
0.577181
0.577188
0.577194
0.577201
0.577201
0.577208
0.577215
0.577222
0.577228
0.577228
0.577235
0.577242
0.577249
0.577256
0.577256
0.577263
0.57727
0.577277
0.577283
0.577283
0.57729
0.577297
0.577304
0.577311
0.577311
0.577318
0.577325
0.577332
0.577339
0.577339
0.577346
0.577353
0.57736
0.577367
0.577367
0.577374
0.577381
0.577388
0.577395
0.577395
0.577402
0.577409
0.577416
0.577423
0.577423
0.57743
0.577437
0.577444
0.577452
0.577452
0.577459
0.577466
0.577473
0.57748
0.57748
0.577487
0.577494
0.577502
0.577509
0.577509
0.577516
0.577523
0.57753
0.577538
0.577538
0.577545
0.577552
0.577559
0.577567
0.577567
0.577574
0.577581
0.577588
0.577596
0.577596
0.577603
0.57761
0.577618
0.577625
0.577625
0.577632
0.57764
0.577647
0.577654
0.577654
0.577662
0.577669
0.577676
0.577684
0.577684
0.577691
0.577699
0.577706
0.577714
0.577714
0.577721
0.577728
0.577736
0.577743
0.577743
0.577751
0.577758
0.577766
0.577773
0.577773
0.577781
0.577788
0.577796
0.577803
0.577803
0.577811
0.577819
0.577826
0.577834
0.577834
0.577841
0.577849
0.577856
0.577864
0.577864
0.577872
0.577879
0.577887
0.577895
0.577895
0.577902
0.57791
0.577917
0.577925
0.577925
0.577933
0.57794
0.577948
0.577956
0.577956
0.577964
0.577971
0.577979
0.577987
0.577987
0.577995
0.578003
0.578011
0.578018
0.578018
0.578026
0.578034
0.578042
0.57805
0.57805
0.578058
0.578066
0.578074
0.578081
0.578081
0.578089
0.578097
0.578105
0.578113
0.578113
0.578121
0.578129
0.578137
0.578145
0.578145
0.578153
0.578161
0.578169
0.578177
0.578177
0.578185
0.578193
0.578201
0.578209
0.578209
0.578217
0.578225
0.578233
0.578241
0.578241
0.57825
0.578258
0.578266
0.578274
0.578274
0.578282
0.57829
0.578298
0.578306
0.578306
0.578315
0.578323
0.578331
0.578339
0.578339
0.578347
0.578356
0.578364
0.578372
0.578372
0.57838
0.578389
0.578397
0.578405
0.578405
0.578414
0.578422
0.57843
0.578439
0.578439
0.578447
0.578455
0.578464
0.578472
0.578472
0.57848
0.578489
0.578497
0.578506
0.578506
0.578514
0.578522
0.578531
0.578539
0.578539
0.578548
0.578556
0.578565
0.578573
0.578573
0.578582
0.57859
0.578599
0.578607
0.578607
0.578616
0.578624
0.578633
0.578642
0.578642
0.57865
0.578659
0.578667
0.578676
0.578676
0.578685
0.578693
0.578702
0.578711
0.578711
0.578719
0.578728
0.578737
0.578745
0.578745
0.578754
0.578763
0.578771
0.57878
0.57878
0.578789
0.578798
0.578806
0.578815
0.578815
0.578824
0.578833
0.578842
0.57885
0.57885
0.578859
0.578868
0.578877
0.578886
0.578886
0.578895
0.578903
0.578912
0.578921
0.578921
0.57893
0.578939
0.578948
0.578957
0.578957
0.578966
0.578975
0.578984
0.578993
0.578993
0.579002
0.579011
0.57902
0.579029
0.579029
0.579038
0.579047
0.579056
0.579066
0.579066
0.579075
0.579084
0.579093
0.579102
0.579102
0.579111
0.57912
0.57913
0.579139
0.579139
0.579148
0.579157
0.579166
0.579176
0.579176
0.579185
0.579194
0.579203
0.579213
0.579213
0.579222
0.579231
0.579241
0.57925
0.57925
0.579259
0.579269
0.579278
0.579287
0.579287
0.579297
0.579306
0.579315
0.579325
0.579325
0.579334
0.579344
0.579353
0.579363
0.579363
0.579372
0.579382
0.579391
0.579401
0.579401
0.57941
0.57942
0.579429
0.579439
0.579439
0.579448
0.579458
0.579467
0.579477
0.579477
0.579487
0.579496
0.579506
0.579515
0.579515
0.579525
0.579535
0.579544
0.579554
0.579554
0.579564
0.579573
0.579583
0.579593
0.579593
0.579603
0.579612
0.579622
0.579632
0.579632
0.579642
0.579652
0.579661
0.579671
0.579671
0.579681
0.579691
0.579701
0.579711
0.579711
0.57972
0.57973
0.57974
0.57975
0.57975
0.57976
0.57977
0.57978
0.57979
0.57979
0.5798
0.57981
0.57982
0.57983
0.57983
0.57984
0.57985
0.57986
0.57987
0.57987
0.57988
0.57989
0.5799
0.57991
0.57991
0.57992
0.579931
0.579941
0.579951
0.579951
0.579961
0.579971
0.579981
0.579991
0.579991
0.580002
0.580012
0.580022
0.580032
0.580032
0.580042
0.580053
0.580063
0.580073
0.580073
0.580084
0.580094
0.580104
0.580115
0.580115
0.580125
0.580136
0.580146
0.580157
0.580157
0.580167
0.580177
0.580188
0.580198
0.580198
0.580209
0.580219
0.58023
0.58024
0.58024
0.580251
0.580261
0.580272
0.580283
0.580283
0.580293
0.580304
0.580314
0.580325
0.580325
0.580336
0.580346
0.580357
0.580367
0.580367
0.580378
0.580389
0.5804
0.58041
0.58041
0.580421
0.580432
0.580442
0.580453
0.580453
0.580464
0.580475
0.580486
0.580496
0.580496
0.580507
0.580518
0.580529
0.58054
0.58054
0.580551
0.580561
0.580572
0.580583
0.580583
0.580594
0.580605
0.580616
0.580627
0.580627
0.580638
0.580649
0.58066
0.580671
0.580671
0.580682
0.580693
0.580704
0.580715
0.580715
0.580726
0.580737
0.580749
0.58076
0.58076
0.580771
0.580782
0.580793
0.580804
0.580804
0.580815
0.580827
0.580838
0.580849
0.580849
0.58086
0.580872
0.580883
0.580894
0.580894
0.580905
0.580917
0.580928
0.580939
0.580939
0.580951
0.580962
0.580974
0.580985
0.580985
0.580996
0.581008
0.581019
0.581031
0.581031
0.581042
0.581053
0.581065
0.581076
0.581076
0.581088
0.581099
0.581111
0.581122
0.581122
0.581134
0.581145
0.581157
0.581168
0.581168
0.58118
0.581192
0.581203
0.581215
0.581215
0.581227
0.581238
0.58125
0.581262
0.581262
0.581274
0.581286
0.581297
0.581309
0.581309
0.581321
0.581333
0.581345
0.581357
0.581357
0.581368
0.58138
0.581392
0.581404
0.581404
0.581416
0.581428
0.58144
0.581452
0.581452
0.581464
0.581476
0.581488
0.5815
0.5815
0.581512
0.581524
0.581536
0.581548
0.581548
0.58156
0.581572
0.581584
0.581596
0.581596
0.581608
0.581621
0.581633
0.581645
0.581645
0.581657
0.581669
0.581682
0.581694
0.581694
0.581706
0.581718
0.581731
0.581743
0.581743
0.581755
0.581767
0.58178
0.581792
0.581792
0.581805
0.581817
0.581829
0.581842
0.581842
0.581854
0.581867
0.581879
0.581891
0.581891
0.581904
0.581916
0.581929
0.581941
0.581941
0.581954
0.581967
0.581979
0.581992
0.581992
0.582004
0.582017
0.58203
0.582042
0.582042
0.582055
0.582068
0.58208
0.582093
0.582093
0.582106
0.582118
0.582131
0.582144
0.582144
0.582157
0.582169
0.582182
0.582195
0.582195
0.582208
0.582221
0.582234
0.582246
0.582246
0.582259
0.582272
0.582285
0.582298
0.582298
0.582311
0.582324
0.582337
0.58235
0.58235
0.582363
0.582376
0.582389
0.582402
0.582402
0.582415
0.582428
0.582441
0.582454
0.582454
0.582467
0.582481
0.582494
0.582507
0.582507
0.58252
0.582534
0.582547
0.58256
0.58256
0.582573
0.582587
0.5826
0.582613
0.582613
0.582627
0.58264
0.582654
0.582667
0.582667
0.58268
0.582694
0.582707
0.582721
0.582721
0.582734
0.582748
0.582761
0.582775
0.582775
0.582788
0.582802
0.582815
0.582829
0.582829
0.582842
0.582856
0.58287
0.582883
0.582883
0.582897
0.582911
0.582924
0.582938
0.582938
0.582952
0.582965
0.582979
0.582993
0.582993
0.583007
0.583021
0.583034
0.583048
0.583048
0.583062
0.583076
0.58309
0.583104
0.583104
0.583118
0.583132
0.583145
0.583159
0.583159
0.583173
0.583187
0.583201
0.583215
0.583215
0.583229
0.583244
0.583258
0.583272
0.583272
0.583286
0.5833
0.583314
0.583328
0.583328
0.583342
0.583357
0.583371
0.583385
0.583385
0.583399
0.583414
0.583428
0.583442
0.583442
0.583456
0.583471
0.583485
0.583499
0.583499
0.583514
0.583528
0.583542
0.583557
0.583557
0.583571
0.583586
0.5836
0.583615
0.583615
0.583629
0.583644
0.583658
0.583673
0.583673
0.583687
0.583702
0.583716
0.583731
0.583731
0.583745
0.58376
0.583775
0.58379
0.58379
0.583804
0.583819
0.583834
0.583849
0.583849
0.583864
0.583879
0.583893
0.583908
0.583908
0.583923
0.583938
0.583953
0.583968
0.583968
0.583983
0.583998
0.584013
0.584028
0.584028
0.584043
0.584058
0.584073
0.584088
0.584088
0.584103
0.584118
0.584133
0.584148
0.584148
0.584164
0.584179
0.584194
0.584209
0.584209
0.584224
0.58424
0.584255
0.58427
0.58427
0.584285
0.584301
0.584316
0.584331
0.584331
0.584347
0.584362
0.584378
0.584393
0.584393
0.584408
0.584424
0.584439
0.584455
0.584455
0.58447
0.584486
0.584501
0.584517
0.584517
0.584532
0.584548
0.584564
0.584579
0.584579
0.584595
0.584611
0.584626
0.584642
0.584642
0.584658
0.584673
0.584689
0.584705
0.584705
0.584721
0.584737
0.584752
0.584768
0.584768
0.584784
0.5848
0.584816
0.584832
0.584832
0.584848
0.584864
0.58488
0.584896
0.584896
0.584912
0.584928
0.584944
0.58496
0.58496
0.584976
0.584992
0.585008
0.585024
0.585024
0.58504
0.585056
0.585072
0.585088
0.585088
0.585105
0.585121
0.585137
0.585154
0.585154
0.58517
0.585186
0.585203
0.585219
0.585219
0.585236
0.585252
0.585269
0.585285
0.585285
0.585302
0.585318
0.585335
0.585351
0.585351
0.585368
0.585385
0.585401
0.585418
0.585418
0.585434
0.585451
0.585468
0.585484
0.585484
0.585501
0.585518
0.585535
0.585551
0.585551
0.585568
0.585585
0.585602
0.585619
0.585619
0.585636
0.585653
0.585669
0.585686
0.585686
0.585703
0.58572
0.585737
0.585754
0.585754
0.585771
0.585788
0.585805
0.585823
0.585823
0.58584
0.585857
0.585874
0.585891
0.585891
0.585908
0.585925
0.585943
0.58596
0.58596
0.585977
0.585994
0.586012
0.586029
0.586029
0.586046
0.586064
0.586081
0.586099
0.586099
0.586116
0.586133
0.586151
0.586168
0.586168
0.586186
0.586203
0.586221
0.586239
0.586239
0.586256
0.586274
0.586291
0.586309
0.586309
0.586327
0.586344
0.586362
0.58638
0.58638
0.586397
0.586415
0.586433
0.586451
0.586451
0.586468
0.586486
0.586504
0.586522
0.586522
0.58654
0.586558
0.586576
0.586594
0.586594
0.586612
0.58663
0.586648
0.586666
0.586666
0.586684
0.586702
0.58672
0.586739
0.586739
0.586757
0.586775
0.586793
0.586812
0.586812
0.58683
0.586848
0.586867
0.586885
0.586885
0.586903
0.586922
0.58694
0.586959
0.586959
0.586977
0.586996
0.587014
0.587033
0.587033
0.587051
0.58707
0.587088
0.587107
0.587107
0.587125
0.587144
0.587163
0.587181
0.587181
0.5872
0.587219
0.587238
0.587256
0.587256
0.587275
0.587294
0.587313
0.587332
0.587332
0.58735
0.587369
0.587388
0.587407
0.587407
0.587426
0.587445
0.587464
0.587483
0.587483
0.587502
0.587521
0.58754
0.587559
0.587559
0.587579
0.587598
0.587617
0.587636
0.587636
0.587655
0.587675
0.587694
0.587713
0.587713
0.587732
0.587752
0.587771
0.58779
0.58779
0.58781
0.587829
0.587849
0.587868
0.587868
0.587887
0.587907
0.587926
0.587946
0.587946
0.587965
0.587985
0.588005
0.588024
0.588024
0.588044
0.588063
0.588083
0.588103
0.588103
0.588123
0.588142
0.588162
0.588182
0.588182
0.588202
0.588222
0.588242
0.588262
0.588262
0.588282
0.588302
0.588322
0.588342
0.588342
0.588362
0.588382
0.588402
0.588423
0.588423
0.588443
0.588463
0.588483
0.588503
0.588503
0.588524
0.588544
0.588564
0.588585
0.588585
0.588605
0.588625
0.588646
0.588666
0.588666
0.588686
0.588707
0.588727
0.588748
0.588748
0.588768
0.588789
0.58881
0.58883
0.58883
0.588851
0.588871
0.588892
0.588913
0.588913
0.588933
0.588954
0.588975
0.588996
0.588996
0.589017
0.589037
0.589058
0.589079
0.589079
0.5891
0.589121
0.589142
0.589163
0.589163
0.589184
0.589205
0.589226
0.589247
0.589247
0.589268
0.589289
0.58931
0.589331
0.589331
0.589353
0.589374
0.589395
0.589416
0.589416
0.589438
0.589459
0.58948
0.589501
0.589501
0.589523
0.589544
0.589566
0.589587
0.589587
0.589608
0.58963
0.589651
0.589673
0.589673
0.589694
0.589716
0.589737
0.589759
0.589759
0.589781
0.589802
0.589824
0.589846
0.589846
0.589868
0.58989
0.589912
0.589934
0.589934
0.589956
0.589978
0.59
0.590022
0.590022
0.590044
0.590066
0.590088
0.59011
0.59011
0.590132
0.590154
0.590176
0.590199
0.590199
0.590221
0.590243
0.590265
0.590288
0.590288
0.59031
0.590332
0.590355
0.590377
0.590377
0.590399
0.590422
0.590444
0.590467
0.590467
0.590489
0.590512
0.590534
0.590557
0.590557
0.59058
0.590602
0.590625
0.590648
0.590648
0.59067
0.590693
0.590716
0.590739
0.590739
0.590761
0.590784
0.590807
0.59083
0.59083
0.590853
0.590876
0.590899
0.590922
0.590922
0.590945
0.590968
0.590991
0.591014
0.591014
0.591037
0.59106
0.591083
0.591107
0.591107
0.59113
0.591153
0.591176
0.5912
0.5912
0.591223
0.591246
0.59127
0.591293
0.591293
0.591316
0.59134
0.591363
0.591387
0.591387
0.59141
0.591434
0.591457
0.591481
0.591481
0.591505
0.591528
0.591552
0.591576
0.591576
0.5916
0.591624
0.591648
0.591671
0.591671
0.591695
0.591719
0.591743
0.591767
0.591767
0.591792
0.591816
0.59184
0.591864
0.591864
0.591888
0.591912
0.591936
0.591961
0.591961
0.591985
0.592009
0.592033
0.592058
0.592058
0.592082
0.592106
0.592131
0.592155
0.592155
0.59218
0.592204
0.592229
0.592253
0.592253
0.592278
0.592302
0.592327
0.592352
0.592352
0.592376
0.592401
0.592426
0.59245
0.59245
0.592475
0.5925
0.592525
0.59255
0.59255
0.592575
0.5926
0.592625
0.59265
0.59265
0.592675
0.5927
0.592725
0.59275
0.59275
0.592775
0.5928
0.592825
0.59285
0.59285
0.592876
0.592901
0.592926
0.592951
0.592951
0.592977
0.593002
0.593027
0.593053
0.593053
0.593078
0.593104
0.593129
0.593155
0.593155
0.59318
0.593206
0.593231
0.593257
0.593257
0.593282
0.593308
0.593334
0.59336
0.59336
0.593385
0.593411
0.593437
0.593463
0.593463
0.593489
0.593515
0.593541
0.593568
0.593568
0.593594
0.59362
0.593646
0.593672
0.593672
0.593698
0.593725
0.593751
0.593777
0.593777
0.593804
0.59383
0.593856
0.593883
0.593883
0.593909
0.593936
0.593962
0.593989
0.593989
0.594015
0.594042
0.594068
0.594095
0.594095
0.594122
0.594148
0.594175
0.594202
0.594202
0.594229
0.594255
0.594282
0.594309
0.594309
0.594336
0.594363
0.59439
0.594417
0.594417
0.594444
0.594471
0.594498
0.594525
0.594525
0.594552
0.594579
0.594607
0.594634
0.594634
0.594661
0.594688
0.594716
0.594743
0.594743
0.59477
0.594798
0.594825
0.594853
0.594853
0.59488
0.594907
0.594935
0.594963
0.594963
0.59499
0.595018
0.595045
0.595073
0.595073
0.595101
0.595128
0.595156
0.595184
0.595184
0.595212
0.59524
0.595268
0.595296
0.595296
0.595324
0.595352
0.59538
0.595408
0.595408
0.595436
0.595464
0.595493
0.595521
0.595521
0.595549
0.595578
0.595606
0.595635
0.595635
0.595663
0.595691
0.59572
0.595748
0.595748
0.595777
0.595806
0.595834
0.595863
0.595863
0.595892
0.59592
0.595949
0.595978
0.595978
0.596006
0.596035
0.596064
0.596093
0.596093
0.596122
0.596151
0.59618
0.596209
0.596209
0.596238
0.596267
0.596296
0.596325
0.596325
0.596354
0.596384
0.596413
0.596442
0.596442
0.596471
0.596501
0.59653
0.596559
0.596559
0.596589
0.596618
0.596648
0.596677
0.596677
0.596707
0.596736
0.596766
0.596795
0.596795
0.596825
0.596855
0.596884
0.596914
0.596914
0.596944
0.596974
0.597004
0.597033
0.597033
0.597063
0.597093
0.597123
0.597153
0.597153
0.597183
0.597213
0.597243
0.597273
0.597273
0.597304
0.597334
0.597364
0.597395
0.597395
0.597425
0.597455
0.597486
0.597517
0.597517
0.597547
0.597578
0.597608
0.597639
0.597639
0.59767
0.5977
0.597731
0.597762
0.597762
0.597793
0.597824
0.597854
0.597885
0.597885
0.597916
0.597947
0.597978
0.598009
0.598009
0.59804
0.598071
0.598102
0.598134
0.598134
0.598165
0.598196
0.598227
0.598258
0.598258
0.59829
0.598321
0.598352
0.598384
0.598384
0.598415
0.598447
0.598478
0.59851
0.59851
0.598541
0.598573
0.598605
0.598636
0.598636
0.598668
0.5987
0.598732
0.598763
0.598763
0.598795
0.598827
0.598859
0.598891
0.598891
0.598923
0.598955
0.598987
0.599019
0.599019
0.599051
0.599083
0.599115
0.599147
0.599147
0.59918
0.599212
0.599244
0.599276
0.599276
0.599309
0.599341
0.599374
0.599406
0.599406
0.599439
0.599471
0.599504
0.599537
0.599537
0.599569
0.599602
0.599635
0.599668
0.599668
0.599701
0.599734
0.599767
0.5998
0.5998
0.599833
0.599866
0.599899
0.599932
0.599932
0.599965
0.599999
0.600032
0.600065
0.600065
0.600099
0.600132
0.600165
0.600199
0.600199
0.600232
0.600266
0.600299
0.600333
0.600333
0.600366
0.6004
0.600433
0.600467
0.600467
0.600501
0.600535
0.600568
0.600602
0.600602
0.600636
0.60067
0.600704
0.600738
0.600738
0.600772
0.600806
0.60084
0.600874
0.600874
0.600908
0.600942
0.600976
0.601011
0.601011
0.601045
0.601079
0.601114
0.601148
0.601148
0.601182
0.601217
0.601251
0.601286
0.601286
0.60132
0.601355
0.601389
0.601424
0.601424
0.601459
0.601493
0.601528
0.601563
0.601563
0.601598
0.601633
0.601668
0.601703
0.601703
0.601738
0.601773
0.601808
0.601843
0.601843
0.601879
0.601914
0.601949
0.601985
0.601985
0.60202
0.602055
0.602091
0.602126
0.602126
0.602162
0.602198
0.602233
0.602269
0.602269
0.602305
0.60234
0.602376
0.602412
0.602412
0.602448
0.602483
0.602519
0.602555
0.602555
0.602591
0.602627
0.602663
0.602699
0.602699
0.602735
0.602772
0.602808
0.602844
0.602844
0.60288
0.602916
0.602953
0.602989
0.602989
0.603026
0.603062
0.603098
0.603135
0.603135
0.603171
0.603208
0.603245
0.603281
0.603281
0.603318
0.603355
0.603391
0.603428
0.603428
0.603465
0.603502
0.603539
0.603576
0.603576
0.603613
0.60365
0.603687
0.603724
0.603724
0.603761
0.603798
0.603835
0.603872
0.603872
0.60391
0.603947
0.603984
0.604022
0.604022
0.604059
0.604097
0.604135
0.604172
0.604172
0.60421
0.604248
0.604286
0.604323
0.604323
0.604361
0.604399
0.604437