<?xml version="1.0"?>
<VTKFile type="UnstructuredGrid" version="0.1" byte_order="LittleEndian">
<UnstructuredGrid>
<Piece NumberOfPoints="5000" NumberOfCells="4000">
<PointData Scalars="Reaction 0">
<DataArray type="Float32" Name="Reaction 0" format="ascii">
0.56628
0.56628
0.56628
0.56628
0.56628
0.56628
0.56628
0.56628
0.56628
0.56628
0.56628
0.56628
0.56628
0.566279
0.566279
0.566279
0.566279
0.566279
0.566279
0.566279
0.566279
0.566279
0.566278
0.566278
0.566278
0.566278
0.566278
0.566278
0.566277
0.566277
0.566277
0.566277
0.566276
0.566276
0.566276
0.566276
0.566276
0.566275
0.566275
0.566275
0.566275
0.566274
0.566274
0.566274
0.566273
0.566273
0.566273
0.566272
0.566272
0.566272
0.566272
0.566271
0.566271
0.56627
0.56627
0.56627
0.566269
0.566269
0.566268
0.566268
0.566268
0.566267
0.566267
0.566266
0.566266
0.566266
0.566265
0.566265
0.566264
0.566263
0.566263
0.566263
0.566262
0.566262
0.566261
0.566261
0.56626
0.56626
0.566259
0.566258
0.566258
0.566258
0.566257
0.566256
0.566255
0.566255
0.566255
0.566254
0.566253
0.566252
0.566252
0.566252
0.566251
0.56625
0.566249
0.566249
0.566248
0.566248
0.566247
0.566246
0.566246
0.566245
0.566244
0.566243
0.566243
0.566243
0.566242
0.566241
0.56624
0.566239
0.566239
0.566238
0.566237
0.566236
0.566235
0.566235
0.566234
0.566233
0.566232
0.566231
0.566231
0.56623
0.566229
0.566228
0.566227
0.566227
0.566226
0.566225
0.566224
0.566223
0.566223
0.566222
0.566221
0.566219
0.566218
0.566218
0.566217
0.566216
0.566215
0.566214
0.566214
0.566213
0.566211
0.56621
0.566209
0.566209
0.566208
0.566207
0.566205
0.566204
0.566204
0.566203
0.566202
0.5662
0.566199
0.566199
0.566198
0.566196
0.566195
0.566194
0.566194
0.566192
0.566191
0.56619
0.566188
0.566188
0.566187
0.566186
0.566184
0.566183
0.566183
0.566181
0.56618
0.566179
0.566177
0.566177
0.566176
0.566174
0.566173
0.566171
0.566171
0.56617
0.566168
0.566167
0.566165
0.566165
0.566164
0.566162
0.566161
0.566159
0.566159
0.566158
0.566156
0.566155
0.566153
0.566153
0.566151
0.56615
0.566148
0.566147
0.566147
0.566145
0.566143
0.566142
0.56614
0.56614
0.566138
0.566137
0.566135
0.566133
0.566133
0.566132
0.56613
0.566128
0.566127
0.566127
0.566125
0.566123
0.566121
0.56612
0.56612
0.566118
0.566116
0.566114
0.566113
0.566113
0.566111
0.566109
0.566107
0.566105
0.566105
0.566104
0.566102
0.5661
0.566098
0.566098
0.566096
0.566094
0.566092
0.566091
0.566091
0.566089
0.566087
0.566085
0.566083
0.566083
0.566081
0.566079
0.566077
0.566075
0.566075
0.566073
0.566071
0.566069
0.566067
0.566067
0.566065
0.566063
0.566061
0.566059
0.566059
0.566057
0.566055
0.566053
0.566051
0.566051
0.566049
0.566047
0.566045
0.566043
0.566043
0.566041
0.566039
0.566037
0.566035
0.566035
0.566033
0.566031
0.566028
0.566026
0.566026
0.566024
0.566022
0.56602
0.566018
0.566018
0.566016
0.566013
0.566011
0.566009
0.566009
0.566007
0.566005
0.566003
0.566
0.566
0.565998
0.565996
0.565994
0.565992
0.565992
0.565989
0.565987
0.565985
0.565983
0.565983
0.56598
0.565978
0.565976
0.565974
0.565974
0.565971
0.565969
0.565967
0.565964
0.565964
0.565962
0.56596
0.565957
0.565955
0.565955
0.565953
0.565951
0.565948
0.565946
0.565946
0.565943
0.565941
0.565939
0.565936
0.565936
0.565934
0.565932
0.565929
0.565927
0.565927
0.565925
0.565922
0.56592
0.565917
0.565917
0.565915
0.565913
0.56591
0.565908
0.565908
0.565905
0.565903
0.5659
0.565898
0.565898
0.565896
0.565893
0.565891
0.565888
0.565888
0.565886
0.565883
0.565881
0.565878
0.565878
0.565876
0.565873
0.565871
0.565868
0.565868
0.565866
0.565863
0.565861
0.565858
0.565858
0.565855
0.565853
0.56585
0.565848
0.565848
0.565845
0.565842
0.56584
0.565837
0.565837
0.565834
0.565832
0.565829
0.565826
0.565826
0.565823
0.565821
0.565818
0.565815
0.565815
0.565812
0.565809
0.565807
0.565804
0.565804
0.565801
0.565798
0.565796
0.565793
0.565793
0.56579
0.565787
0.565784
0.565782
0.565782
0.565779
0.565776
0.565773
0.56577
0.56577
0.565767
0.565765
0.565762
0.565759
0.565759
0.565756
0.565753
0.56575
0.565748
0.565748
0.565745
0.565742
0.565739
0.565736
0.565736
0.565733
0.56573
0.565727
0.565725
0.565725
0.565722
0.565719
0.565716
0.565713
0.565713
0.56571
0.565707
0.565704
0.565701
0.565701
0.565698
0.565695
0.565693
0.56569
0.56569
0.565687
0.565684
0.565681
0.565678
0.565678
0.565675
0.565672
0.565669
0.565666
0.565666
0.565663
0.56566
0.565657
0.565654
0.565654
0.565651
0.565648
0.565645
0.565642
0.565642
0.565639
0.565636
0.565633
0.56563
0.56563
0.565627
0.565624
0.565621
0.565618
0.565618
0.565615
0.565612
0.565609
0.565606
0.565606
0.565603
0.5656
0.565597
0.565594
0.565594
0.565591
0.565588
0.565584
0.565581
0.565581
0.565578
0.565575
0.565572
0.565569
0.565569
0.565566
0.565563
0.56556
0.565557
0.565557
0.565554
0.565551
0.565547
0.565544
0.565544
0.565541
0.565538
0.565535
0.565532
0.565532
0.565529
0.565526
0.565523
0.565519
0.565519
0.565516
0.565513
0.56551
0.565507
0.565507
0.565504
0.565501
0.565497
0.565494
0.565494
0.565491
0.565488
0.565485
0.565482
0.565482
0.565478
0.565475
0.565472
0.565469
0.565469
0.565466
0.565463
0.565459
0.565456
0.565456
0.565453
0.56545
0.565447
0.565443
0.565443
0.56544
0.565437
0.565434
0.565431
0.565431
0.565427
0.565424
0.565421
0.565418
0.565418
0.565414
0.565411
0.565408
0.565405
0.565405
0.565402
0.565398
0.565395
0.565392
0.565392
0.565389
0.565385
0.565382
0.565379
0.565379
0.565376
0.565372
0.565369
0.565366
0.565366
0.565363
0.565359
0.565356
0.565353
0.565353
0.56535
0.565346
0.565343
0.56534
0.56534
0.565336
0.565333
0.56533
0.565327
0.565327
0.565323
0.56532
0.565317
0.565313
0.565313
0.56531
0.565307
0.565304
0.5653
0.5653
0.565297
0.565294
0.56529
0.565287
0.565287
0.565284
0.56528
0.565277
0.565274
0.565274
0.56527
0.565267
0.565264
0.56526
0.56526
0.565257
0.565254
0.56525
0.565247
0.565247
0.565244
0.56524
0.565237
0.565234
0.565234
0.56523
0.565227
0.565224
0.56522
0.56522
0.565217
0.565214
0.56521
0.565207
0.565207
0.565204
0.5652
0.565197
0.565194
0.565194
0.56519
0.565187
0.565184
0.56518
0.56518
0.565177
0.565174
0.56517
0.565167
0.565167
0.565163
0.56516
0.565157
0.565153
0.565153
0.56515
0.565147
0.565143
0.56514
0.56514
0.565136
0.565133
0.56513
0.565126
0.565126
0.565123
0.56512
0.565116
0.565113
0.565113
0.565109
0.565106
0.565103
0.565099
0.565099
0.565096
0.565093
0.565089
0.565086
0.565086
0.565082
0.565079
0.565076
0.565072
0.565072
0.565069
0.565065
0.565062
0.565059
0.565059
0.565055
0.565052
0.565049
0.565045
0.565045
0.565042
0.565038
0.565035
0.565032
0.565032
0.565028
0.565025
0.565021
0.565018
0.565018
0.565015
0.565011
0.565008
0.565004
0.565004
0.565001
0.564998
0.564994
0.564991
0.564991
0.564987
0.564984
0.564981
0.564977
0.564977
0.564974
0.56497
0.564967
0.564964
0.564964
0.56496
0.564957
0.564953
0.56495
0.56495
0.564947
0.564943
0.56494
0.564936
0.564936
0.564933
0.56493
0.564926
0.564923
0.564923
0.564919
0.564916
0.564913
0.564909
0.564909
0.564906
0.564903
0.564899
0.564896
0.564896
0.564892
0.564889
0.564886
0.564882
0.564882
0.564879
0.564875
0.564872
0.564869
0.564869
0.564865
0.564862
0.564858
0.564855
0.564855
0.564852
0.564848
0.564845
0.564842
0.564842
0.564838
0.564835
0.564831
0.564828
0.564828
0.564825
0.564821
0.564818
0.564815
0.564815
0.564811
0.564808
0.564804
0.564801
0.564801
0.564798
0.564794
0.564791
0.564788
0.564788
0.564784
0.564781
0.564778
0.564774
0.564774
0.564771
0.564768
0.564765
0.564762
0.564762
0.56476
0.564757
0.564754
0.564752
0.564752
0.564749
0.564746
0.564743
0.564741
0.564741
0.564738
0.564735
0.564733
0.56473
0.56473
0.564727
0.564725
0.564722
0.564719
0.564719
0.564717
0.564714
0.564711
0.564709
0.564709
0.564706
0.564703
0.564701
0.564698
0.564698
0.564695
0.564693
0.56469
0.564687
0.564687
0.564685
0.564682
0.56468
0.564677
0.564677
0.564674
0.564672
0.564669
0.564666
0.564666
0.564664
0.564661
0.564659
0.564656
0.564656
0.564653
0.564651
0.564648
0.564646
0.564646
0.564643
0.56464
0.564638
0.564635
0.564635
0.564633
0.56463
0.564627
0.564625
0.564625
0.564622
0.56462
0.564617
0.564614
0.564614
0.564612
0.564609
0.564607
0.564604
0.564604
0.564602
0.564599
0.564596
0.564594
0.564594
0.564591
0.564589
0.564586
0.564584
0.564584
0.564581
0.564579
0.564576
0.564573
0.564573
0.564571
0.564568
0.564566
0.564563
0.564563
0.564561
0.564558
0.564556
0.564553
0.564553
0.564551
0.564548
0.564546
0.564543
0.564543
0.564541
0.564538
0.564536
0.564533
0.564533
0.564531
0.564528
0.564526
0.564523
0.564523
0.564521
0.564518
0.564516
0.564513
0.564513
0.564511
0.564508
0.564506
0.564503
0.564503
0.564501
0.564498
0.564496
0.564493
0.564493
0.564491
0.564488
0.564486
0.564483
0.564483
0.564481
0.564479
0.564476
0.564474
0.564474
0.564471
0.564469
0.564466
0.564464
0.564464
0.564461
0.564459
0.564457
0.564454
0.564454
0.564452
0.564449
0.564447
0.564444
0.564444
0.564442
0.56444
0.564437
0.564435
0.564435
0.564432
0.56443
0.564427
0.564425
0.564425
0.564423
0.56442
0.564418
0.564415
0.564415
0.564413
0.564411
0.564408
0.564406
0.564406
0.564403
0.564401
0.564399
0.564396
0.564396
0.564394
0.564391
0.564389
0.564387
0.564387
0.564384
0.564382
0.56438
0.564377
0.564377
0.564375
0.564372
0.56437
0.564368
0.564368
0.564365
0.564363
0.564361
0.564358
0.564358
0.564356
0.564354
0.564351
0.564349
0.564349
0.564346
0.564344
0.564342
0.564339
0.564339
0.564337
0.564335
0.564332
0.56433
0.56433
0.564328
0.564325
0.564323
0.564321
0.564321
0.564318
0.564316
0.564314
0.564311
0.564311
0.564309
0.564307
0.564304
0.564302
0.564302
0.5643
0.564297
0.564295
0.564293
0.564293
0.564291
0.564288
0.564286
0.564284
0.564284
0.564281
0.564279
0.564277
0.564274
0.564274
0.564272
0.56427
0.564267
0.564265
0.564265
0.564263
0.564261
0.564258
0.564256
0.564256
0.564254
0.564251
0.564249
0.564247
0.564247
0.564245
0.564242
0.56424
0.564238
0.564238
0.564236
0.564233
0.564231
0.564229
0.564229
0.564227
0.564225
0.564223
0.564221
0.564221
0.564219
0.564217
0.564215
0.564213
0.564213
0.564211
0.564209
0.564207
0.564205
0.564205
0.564203
0.564201
0.564199
0.564197
0.564197
0.564195
0.564193
0.564191
0.564189
0.564189
0.564187
0.564185
0.564183
0.564181
0.564181
0.564179
0.564177
0.564175
0.564173
0.564173
0.564171
0.564169
0.564167
0.564165
0.564165
0.564163
0.564161
0.564159
0.564157
0.564157
0.564156
0.564154
0.564152
0.56415
0.56415
0.564148
0.564146
0.564144
0.564142
0.564142
0.56414
0.564138
0.564136
0.564134
0.564134
0.564132
0.56413
0.564128
0.564126
0.564126
0.564124
0.564122
0.56412
0.564118
0.564118
0.564117
0.564115
0.564113
0.564111
0.564111
0.564109
0.564107
0.564105
0.564103
0.564103
0.564101
0.564099
0.564097
0.564095
0.564095
0.564093
0.564092
0.56409
0.564088
0.564088
0.564086
0.564084
0.564082
0.56408
0.56408
0.564078
0.564076
0.564074
0.564073
0.564073
0.564071
0.564069
0.564067
0.564065
0.564065
0.564063
0.564061
0.564059
0.564057
0.564057
0.564056
0.564054
0.564052
0.56405
0.56405
0.564048
0.564046
0.564044
0.564042
0.564042
0.56404
0.564039
0.564037
0.564035
0.564035
0.564033
0.564031
0.564029
0.564027
0.564027
0.564026
0.564024
0.564022
0.56402
0.56402
0.564018
0.564016
0.564014
0.564013
0.564013
0.564011
0.564009
0.564007
0.564005
0.564005
0.564003
0.564002
0.564
0.563998
0.563998
0.563996
0.563994
0.563992
0.56399
0.56399
0.563989
0.563987
0.563985
0.563983
0.563983
0.563981
0.56398
0.563978
0.563976
0.563976
0.563974
0.563972
0.56397
0.563969
0.563969
0.563967
0.563965
0.563963
0.563961
0.563961
0.56396
0.563958
0.563956
0.563954
0.563954
0.563952
0.56395
0.563949
0.563947
0.563947
0.563945
0.563943
0.563941
0.56394
0.56394
0.563938
0.563936
0.563934
0.563932
0.563932
0.563931
0.563929
0.563927
0.563925
0.563925
0.563924
0.563922
0.56392
0.563918
0.563918
0.563916
0.563915
0.563913
0.563911
0.563911
0.563909
0.563907
0.563906
0.563904
0.563904
0.563902
0.5639
0.563899
0.563897
0.563897
0.563895
0.563893
0.563892
0.56389
0.56389
0.563888
0.563887
0.563885
0.563883
0.563883
0.563881
0.56388
0.563878
0.563876
0.563876
0.563874
0.563873
0.563871
0.563869
0.563869
0.563867
0.563866
0.563864
0.563862
0.563862
0.563861
0.563859
0.563857
0.563855
0.563855
0.563854
0.563852
0.56385
0.563848
0.563848
0.563847
0.563845
0.563843
0.563842
0.563842
0.56384
0.563838
0.563837
0.563835
0.563835
0.563833
0.563831
0.56383
0.563828
0.563828
0.563826
0.563825
0.563823
0.563821
0.563821
0.56382
0.563818
0.563816
0.563814
0.563814
0.563813
0.563811
0.563809
0.563808
0.563808
0.563806
0.563804
0.563803
0.563801
0.563801
0.563799
0.563798
0.563796
0.563794
0.563794
0.563793
0.563791
0.563789
0.563788
0.563788
0.563786
0.563784
0.563783
0.563781
0.563781
0.563779
0.563778
0.563776
0.563774
0.563774
0.563773
0.563771
0.563769
0.563768
0.563768
0.563766
0.563764
0.563763
0.563761
0.563761
0.563759
0.563758
0.563756
0.563754
0.563754
0.563753
0.563751
0.56375
0.563748
0.563748
0.563746
0.563745
0.563743
0.563741
0.563741
0.56374
0.563738
0.563736
0.563735
0.563735
0.563733
0.563732
0.56373
0.563728
0.563728
0.563727
0.563725
0.563723
0.563722
0.563722
0.56372
0.563719
0.563717
0.563715
0.563715
0.563714
0.563712
0.563711
0.563709
0.563709
0.563707
0.563706
0.563704
0.563703
0.563703
0.563701
0.563699
0.563698
0.563696
0.563696
0.563695
0.563693
0.563691
0.56369
0.56369
0.563688
0.563687
0.563685
0.563683
0.563683
0.563682
0.56368
0.563679
0.563677
0.563677
0.563675
0.563674
0.563672
0.563671
0.563671
0.563669
0.563668
0.563666
0.563664
0.563664
0.563663
0.563661
0.56366
0.563658
0.563658
0.563656
0.563655
0.563653
0.563652
0.563652
0.56365
0.563649
0.563647
0.563646
0.563646
0.563644
0.563642
0.563641
0.563639
0.563639
0.563638
0.563636
0.563635
0.563633
0.563633
0.563631
0.56363
0.563628
0.563627
0.563627
0.563625
0.563624
0.563622
0.563621
0.563621
0.563619
0.563617
0.563616
0.563614
0.563614
0.563613
0.563611
0.56361
0.563608
0.563608
0.563607
0.563605
0.563604
0.563602
0.563602
0.563601
0.563599
0.563597
0.563596
0.563596
0.563594
0.563593
0.563591
0.56359
0.56359
0.563588
0.563587
0.563585
0.563584
0.563584
0.563582
0.563581
0.563579
0.563578
0.563578
0.563576
0.563575
0.563573
0.563572
0.563572
0.56357
0.563569
0.563567
0.563566
0.563566
0.563564
0.563563
0.563561
0.56356
0.56356
0.563558
0.563557
0.563555
0.563554
0.563554
0.563552
0.563551
0.563549
0.563548
0.563548
0.563546
0.563545
0.563543
0.563542
0.563542
0.56354
0.563539
0.563537
0.563536
0.563536
0.563534
0.563533
0.563531
0.56353
0.56353
0.563528
0.563527
0.563525
0.563524
0.563524
0.563523
0.563521
0.56352
0.563518
0.563518
0.563517
0.563515
0.563514
0.563512
0.563512
0.563511
0.563509
0.563508
0.563507
0.563507
0.563505
0.563504
0.563502
0.563501
0.563501
0.563499
0.563498
0.563496
0.563495
0.563495
0.563494
0.563492
0.563491
0.563489
0.563489
0.563488
0.563486
0.563485
0.563483
0.563483
0.563482
0.563481
0.563479
0.563478
0.563478
0.563476
0.563475
0.563474
0.563472
0.563472
0.563471
0.563469
0.563468
0.563466
0.563466
0.563465
0.563464
0.563462
0.563461
0.563461
0.563459
0.563458
0.563456
0.563455
0.563455
0.563454
0.563452
0.563451
0.56345
0.56345
0.563448
0.563447
0.563445
0.563444
0.563444
0.563443
0.563441
0.56344
0.563438
0.563438
0.563437
0.563436
0.563434
0.563433
0.563433
0.563431
0.56343
0.563429
0.563427
0.563427
0.563426
0.563424
0.563423
0.563422
0.563422
0.56342
0.563419
0.563418
0.563416
0.563416
0.563415
0.563413
0.563412
0.563411
0.563411
0.563409
0.563408
0.563407
0.563405
0.563405
0.563404
0.563403
0.563401
0.5634
0.5634
0.563398
0.563397
0.563396
0.563394
0.563394
0.563393
0.563392
0.56339
0.563389
0.563389
0.563388
0.563386
0.563385
0.563384
0.563384
0.563382
0.563381
0.56338
0.563378
0.563378
0.563377
0.563376
0.563374
0.563373
0.563373
0.563372
0.56337
0.563369
0.563368
0.563368
0.563366
0.563365
0.563364
0.563362
0.563362
0.563361
0.56336
0.563358
0.563357
0.563357
0.563356
0.563355
0.563353
0.563352
0.563352
0.563351
0.563349
0.563348
0.563347
0.563347
0.563345
0.563344
0.563343
0.563341
0.563341
0.56334
0.563339
0.563338
0.563336
0.563336
0.563335
0.563334
0.563332
0.563331
0.563331
0.56333
0.563329
0.563327
0.563326
0.563326
0.563325
0.563323
0.563322
0.563321
0.563321
0.56332
0.563318
0.563317
0.563316
0.563316
0.563315
0.563313
0.563312
0.563311
0.563311
0.563309
0.563308
0.563307
0.563306
0.563306
0.563304
0.563303
0.563302
0.563301
0.563301
0.563299
0.563298
0.563297
0.563296
0.563296
0.563294
0.563293
0.563292
0.563291
0.563291
0.563289
0.563288
0.563287
0.563286
0.563286
0.563284
0.563283
0.563282
0.563281
0.563281
0.563279
0.563278
0.563277
0.563276
0.563276
0.563275
0.563273
0.563272
0.563271
0.563271
0.56327
0.563268
0.563267
0.563266
0.563266
0.563265
0.563264
0.563262
0.563261
0.563261
0.56326
0.563259
0.563257
0.563256
0.563256
0.563255
0.563254
0.563253
0.563251
0.563251
0.56325
0.563249
0.563248
0.563247
0.563247
0.563245
0.563244
0.563243
0.563242
0.563242
0.563241
0.563239
0.563238
0.563237
0.563237
0.563236
0.563235
0.563234
0.563232
0.563232
0.563231
0.56323
0.563229
0.563228
0.563228
0.563226
0.563225
0.563224
0.563223
0.563223
0.563222
0.563221
0.563219
0.563218
0.563218
0.563217
0.563216
0.563215
0.563214
0.563214
0.563212
0.563211
0.56321
0.563209
0.563209
0.563208
0.563207
0.563205
0.563204
0.563204
0.563203
0.563202
0.563201
0.5632
0.5632
0.563199
0.563197
0.563196
0.563195
0.563195
0.563194
0.563193
0.563192
0.563191
0.563191
0.563189
0.563188
0.563187
0.563186
0.563186
0.563185
0.563184
0.563183
0.563181
0.563181
0.56318
0.563179
0.563178
0.563177
0.563177
0.563176
0.563175
0.563174
0.563172
0.563172
0.563171
0.56317
0.563169
0.563168
0.563168
0.563167
0.563166
0.563165
0.563164
0.563164
0.563162
0.563161
0.56316
0.563159
0.563159
0.563158
0.563157
0.563156
0.563155
0.563155
0.563154
0.563153
0.563151
0.56315
0.56315
0.563149
0.563148
0.563147
0.563146
0.563146
0.563145
0.563144
0.563143
0.563142
0.563142
0.563141
0.56314
0.563138
0.563137
0.563137
0.563136
0.563135
0.563134
0.563133
0.563133
0.563132
0.563131
0.56313
0.563129
0.563129
0.563128
0.563127
0.563126
0.563124
0.563124
0.563123
0.563122
0.563121
0.56312
0.56312
0.563119
0.563118
0.563117
0.563116
0.563116
0.563115
0.563114
0.563113
0.563112
0.563112
0.563111
0.56311
0.563109
0.563108
0.563108
0.563107
0.563106
0.563105
0.563103
0.563103
0.563102
0.563101
0.5631
0.563099
0.563099
0.563098
0.563097
0.563096
0.563095
0.563095
0.563094
0.563093
0.563092
0.563091
0.563091
0.56309
0.563089
0.563088
0.563087
0.563087
0.563086
0.563085
0.563084
0.563083
0.563083
0.563082
0.563081
0.56308
0.563079
0.563079
0.563078
0.563077
0.563076
0.563075
0.563075
0.563074
0.563073
0.563072
0.563071
0.563071
0.56307
0.563069
0.563068
0.563067
0.563067
0.563066
0.563065
0.563064
0.563063
0.563063
0.563062
0.563061
0.56306
0.563059
0.563059
0.563058
0.563057
0.563056
0.563055
0.563055
0.563054
0.563053
0.563052
0.563051
0.563051
0.56305
0.563049
0.563048
0.563047
0.563047
0.563046
0.563045
0.563044
0.563043
0.563043
0.563042
0.563041
0.56304
0.563039
0.563039
0.563038
0.563037
0.563037
0.563036
0.563036
0.563035
0.563034
0.563033
0.563032
0.563032
0.563031
0.56303
0.563029
0.563028
0.563028
0.563027
0.563026
0.563025
0.563024
0.563024
0.563023
0.563022
0.563021
0.56302
0.56302
0.563019
0.563018
0.563018
0.563017
0.563017
0.563016
0.563015
0.563014
0.563013
0.563013
0.563012
0.563011
0.56301
0.563009
0.563009
0.563008
0.563007
0.563006
0.563005
0.563005
0.563005
0.563004
0.563003
0.563002
0.563002
0.563001
0.563
0.562999
0.562998
0.562998
0.562997
0.562996
0.562995
0.562995
0.562995
0.562994
0.562993
0.562992
0.562991
0.562991
0.56299
0.562989
0.562988
0.562987
0.562987
0.562986
0.562985
0.562985
0.562984
0.562984
0.562983
0.562982
0.562981
0.56298
0.56298
0.562979
0.562978
0.562977
0.562977
0.562977
0.562976
0.562975
0.562974
0.562973
0.562973
0.562972
0.562971
0.56297
0.56297
0.56297
0.562969
0.562968
0.562967
0.562966
0.562966
0.562965
0.562964
0.562963
0.562962
0.562962
0.562962
0.562961
0.56296
0.562959
0.562959
0.562958
0.562957
0.562957
0.562956
0.562956
0.562955
0.562954
0.562953
0.562952
0.562952
0.562951
0.562951
0.56295
0.562949
0.562949
0.562948
0.562947
0.562946
0.562945
0.562945
0.562945
0.562944
0.562943
0.562942
0.562942
0.562941
0.56294
0.56294
0.562939
0.562939
0.562938
0.562937
0.562936
0.562935
0.562935
0.562935
0.562934
0.562933
0.562932
0.562932
0.562931
0.56293
0.56293
0.562929
0.562929
0.562928
0.562927
0.562926
0.562925
0.562925
0.562925
0.562924
0.562923
0.562922
0.562922
0.562921
0.562921
0.56292
0.562919
0.562919
0.562918
0.562917
0.562916
0.562916
0.562916
0.562915
0.562914
0.562913
0.562912
0.562912
0.562912
0.562911
0.56291
0.562909
0.562909
0.562908
0.562908
0.562907
0.562906
0.562906
0.562905
0.562905
0.562904
0.562903
0.562903
0.562902
0.562901
0.562901
0.5629
0.5629
0.562899
0.562898
0.562897
0.562897
0.562897
0.562896
0.562895
0.562894
0.562894
0.562894
0.562893
0.562892
0.562891
0.56289
0.56289
0.56289
0.562889
0.562888
0.562887
0.562887
0.562886
0.562886
0.562885
0.562884
0.562884
0.562884
0.562883
0.562882
0.562881
0.562881
0.56288
0.56288
0.562879
0.562878
0.562878
0.562877
0.562877
0.562876
0.562875
0.562875
0.562874
0.562874
0.562873
0.562872
0.562872
0.562871
0.562871
0.56287
0.562869
0.562869
0.562868
0.562868
0.562867
0.562866
0.562866
0.562866
0.562865
0.562864
0.562863
0.562863
0.562863
0.562862
0.562861
0.56286
0.56286
0.56286
0.562859
0.562858
0.562857
0.562857
0.562857
0.562856
0.562855
0.562855
0.562855
0.562854
0.562853
0.562852
0.562852
0.562852
0.562851
0.56285
0.56285
0.562849
0.562849
0.562848
0.562847
0.562847
0.562846
0.562846
0.562845
0.562845
0.562844
0.562843
0.562843
0.562842
0.562842
0.562841
0.56284
0.56284
0.56284
0.562839
0.562838
0.562838
0.562838
0.562837
0.562836
0.562835
0.562835
0.562835
0.562834
0.562833
0.562833
0.562832
0.562832
0.562831
0.562831
0.56283
0.562829
0.562829
0.562829
0.562828
0.562827
0.562826
0.562826
0.562826
0.562825
0.562824
0.562824
0.562824
0.562823
0.562822
0.562822
0.562821
0.562821
0.56282
0.56282
0.562819
0.562818
0.562818
0.562818
0.562817
0.562816
0.562816
0.562816
0.562815
0.562814
0.562814
0.562813
0.562813
0.562812
0.562812
0.562811
0.56281
0.56281
0.56281
0.562809
0.562808
0.562808
0.562808
0.562807
0.562806
0.562806
0.562805
0.562805
0.562805
0.562804
0.562803
0.562803
0.562803
0.562802
0.562801
0.562801
0.5628
0.5628
0.562799
0.562799
0.562798
0.562797
0.562797
0.562797
0.562796
0.562796
0.562795
0.562795
0.562794
0.562794
0.562793
0.562792
0.562792
0.562792
0.562791
0.56279
0.56279
0.56279
0.562789
0.562789
0.562788
0.562787
0.562787
0.562787
0.562786
0.562785
0.562785
0.562785
0.562784
0.562784
0.562783
0.562782
0.562782
0.562782
0.562781
0.562781
0.56278
0.56278
0.562779
0.562779
0.562778
0.562777
0.562777
0.562777
0.562776
0.562776
0.562775
0.562775
0.562774
0.562774
0.562773
0.562773
0.562773
0.562772
0.562771
0.562771
0.56277
0.56277
0.56277
0.562769
0.562768
0.562768
0.562768
0.562767
0.562767
0.562766
0.562765
0.562765
0.562765
0.562764
0.562764
0.562763
0.562763
0.562763
0.562762
0.562761
0.562761
0.562761
0.56276
0.56276
0.562759
0.562759
0.562759
0.562758
0.562757
0.562757
0.562756
0.562756
0.562756
0.562755
0.562754
0.562754
0.562754
0.562753
0.562753
0.562752
0.562752
0.562752
0.562751
0.562751
0.56275
0.562749
0.562749
0.562749
0.562748
0.562748
0.562747
0.562747
0.562747
0.562746
0.562745
0.562745
0.562745
0.562744
0.562744
0.562743
0.562743
0.562743
0.562742
0.562742
0.562741
0.56274
0.56274
0.56274
0.562739
0.562739
0.562738
0.562738
0.562738
0.562737
0.562737
0.562736
0.562736
0.562736
0.562735
0.562735
0.562734
0.562734
0.562733
0.562733
0.562732
0.562732
0.562732
0.562731
0.562731
0.56273
0.56273
0.56273
0.562729
0.562729
0.562728
0.562728
0.562728
0.562727
0.562727
0.562726
0.562725
0.562725
0.562725
0.562724
0.562724
0.562723
0.562723
0.562723
0.562722
0.562722
0.562721
0.562721
0.562721
0.56272
0.56272
0.562719
0.562719
0.562719
0.562718
0.562718
0.562717
0.562717
0.562717
0.562716
0.562716
0.562715
0.562715
0.562715
0.562714
0.562714
0.562713
0.562713
0.562713
0.562712
0.562712
0.562711
0.562711
0.562711
0.56271
0.56271
0.562709
0.562709
0.562709
0.562708
0.562708
0.562707
0.562707
0.562707
0.562706
0.562706
0.562705
0.562705
0.562705
0.562704
0.562704
0.562703
0.562703
0.562703
0.562702
0.562702
0.562701
0.562701
0.562701
0.5627
0.5627
0.5627
0.5627
0.562699
0.562699
0.562698
0.562698
0.562698
0.562697
0.562697
0.562696
0.562696
0.562696
0.562695
0.562695
0.562694
0.562694
0.562694
0.562693
0.562693
0.562692
0.562692
0.562692
0.562692
0.562691
0.562691
0.56269
0.56269
0.56269
0.562689
0.562689
0.562688
0.562688
0.562688
0.562687
0.562687
0.562687
0.562687
0.562686
0.562686
0.562685
0.562685
0.562685
0.562684
0.562684
0.562683
0.562683
0.562683
0.562682
0.562682
0.562682
0.562681
0.562681
0.562681
0.56268
0.56268
0.562679
0.562679
0.562679
0.562679
0.562678
0.562678
0.562678
0.562677
0.562677
0.562676
0.562676
0.562676
0.562675
0.562675
0.562675
0.562674
0.562674
0.562674
0.562673
0.562673
0.562672
0.562672
0.562672
0.562672
0.562671
0.562671
0.562671
0.56267
0.56267
0.56267
0.562669
0.562669
0.562669
0.562668
0.562668
0.562667
0.562667
0.562667
0.562667
0.562666
0.562666
0.562666
0.562665
0.562665
0.562665
0.562664
0.562664
0.562664
0.562663
0.562663
0.562663
0.562663
0.562662
0.562662
0.562661
0.562661
0.562661
0.562661
0.56266
0.56266
0.562659
0.562659
0.562659
0.562659
0.562658
0.562658
0.562658
0.562657
0.562657
0.562657
0.562656
0.562656
0.562656
0.562655
0.562655
0.562655
0.562655
0.562654
0.562654
0.562653
0.562653
0.562653
0.562653
0.562652
0.562652
0.562651
0.562651
0.562651
0.562651
0.56265
0.56265
0.56265
0.56265
0.562649
0.562649
0.562648
0.562648
0.562648
0.562648
0.562647
0.562647
0.562647
0.562647
0.562646
0.562646
0.562646
0.562646
0.562645
0.562645
0.562644
0.562644
0.562644
0.562644
0.562643
0.562643
0.562643
0.562643
0.562642
0.562642
0.562641
0.562641
0.562641
0.562641
0.56264
0.56264
0.56264
0.56264
0.562639
0.562639
0.562639
0.562638
0.562638
0.562638
0.562638
0.562637
0.562637
0.562637
0.562637
0.562636
0.562636
0.562635
0.562635
0.562635
0.562635
0.562634
0.562634
0.562634
0.562634
0.562633
0.562633
0.562633
0.562633
0.562632
0.562632
0.562632
0.562631
0.562631
0.562631
0.562631
0.56263
0.56263
0.56263
0.56263
0.562629
0.562629
0.562629
0.562629
0.562628
0.562628
0.562628
0.562627
0.562627
0.562627
0.562627
0.562626
0.562626
0.562626
0.562626
0.562625
0.562625
0.562625
0.562625
0.562624
0.562624
0.562624
0.562624
0.562624
0.562623
0.562623
0.562623
0.562622
0.562622
0.562622
0.562622
0.562621
0.562621
0.562621
0.562621
0.56262
0.56262
0.56262
0.56262
0.562619
0.562619
0.562619
0.562619
0.562619
0.562618
0.562618
0.562618
0.562617
0.562617
0.562617
0.562617
0.562616
0.562616
0.562616
0.562616
0.562616
0.562615
0.562615
0.562615
0.562615
0.562614
0.562614
0.562614
0.562614
0.562613
0.562613
0.562613
0.562613
0.562613
0.562612
0.562612
0.562612
0.562611
0.562611
0.562611
0.562611
0.562611
0.56261
0.56261
0.56261
0.56261
0.562609
0.562609
0.562609
0.562609
0.562609
0.562608
0.562608
0.562608
0.562608
0.562608
0.562607
0.562607
0.562607
0.562607
0.562606
0.562606
0.562606
0.562606
0.562606
0.562605
0.562605
0.562605
0.562605
0.562604
0.562604
0.562604
0.562604
0.562604
0.562603
0.562603
0.562603
0.562603
0.562603
0.562602
0.562602
0.562602
0.562602
0.562602
0.562601
0.562601
0.562601
0.562601
0.562601
0.5626
0.5626
0.5626
0.5626
0.5626
0.562599
0.562599
0.562599
0.562599
0.562599
0.562598
0.562598
0.562598
0.562598
0.562598
0.562597
0.562597
0.562597
0.562597
0.562597
0.562596
0.562596
0.562596
0.562596
0.562596
0.562595
0.562595
0.562595
0.562595
0.562595
0.562594
0.562594
0.562594
0.562594
0.562594
0.562593
0.562593
0.562593
0.562593
0.562593
0.562593
0.562592
0.562592
0.562592
0.562592
0.562592
0.562591
0.562591
0.562591
0.562591
0.562591
0.56259
0.56259
0.56259
0.56259
0.56259
0.56259
0.562589
0.562589
0.562589
0.562589
0.562589
0.562588
0.562588
0.562588
0.562588
0.562588
0.562588
0.562587
0.562587
0.562587
0.562587
0.562587
0.562587
0.562587
0.562586
0.562586
0.562586
0.562586
0.562586
0.562585
0.562585
0.562585
0.562585
0.562585
0.562585
0.562584
0.562584
0.562584
0.562584
0.562584
0.562584
0.562583
0.562583
0.562583
0.562583
0.562583
0.562583
0.562582
0.562582
0.562582
0.562582
0.562582
0.562582
0.562582
0.562581
0.562581
0.562581
0.562581
0.562581
0.562581
0.562581
0.56258
0.56258
0.56258
0.56258
0.56258
0.56258
0.562579
0.562579
0.562579
0.562579
0.562579
0.562579
0.562579
0.562578
0.562578
0.562578
0.562578
0.562578
0.562578
0.562578
0.562577
0.562577
0.562577
0.562577
0.562577
0.562577
0.562577
0.562577
0.562576
0.562576
0.562576
0.562576
0.562576
0.562576
0.562575
0.562575
0.562575
0.562575
0.562575
0.562575
0.562575
0.562574
0.562574
0.562574
0.562574
0.562574
0.562574
0.562574
0.562574
0.562573
0.562573
0.562573
0.562573
0.562573
0.562573
0.562573
0.562573
0.562573
0.562572
0.562572
0.562572
0.562572
0.562572
0.562572
0.562572
0.562571
0.562571
0.562571
0.562571
0.562571
0.562571
0.562571
0.562571
0.562571
0.56257
0.56257
0.56257
0.56257
0.56257
0.56257
0.56257
0.56257
0.56257
0.562569
0.562569
0.562569
0.562569
0.562569
0.562569
0.562569
0.562569
0.562568
0.562568
0.562568
0.562568
0.562568
0.562568
0.562568
0.562568
0.562568
0.562567
0.562567
0.562567
0.562567
0.562567
0.562567
0.562567
0.562567
0.562567
0.562567
0.562566
0.562566
0.562566
0.562566
0.562566
0.562566
0.562566
0.562566
0.562566
0.562565
0.562565
0.562565
0.562565
0.562565
0.562565
0.562565
0.562565
0.562565
0.562565
0.562565
0.562565
0.562564
0.562564
0.562564
0.562564
0.562564
0.562564
0.562564
0.562564
0.562564
0.562564
0.562563
0.562563
0.562563
0.562563
0.562563
0.562563
0.562563
0.562563
0.562563
0.562563
0.562563
0.562563
0.562563
0.562562
0.562562
0.562562
0.562562
0.562562
0.562562
0.562562
0.562562
0.562562
0.562562
0.562562
0.562562
0.562561
0.562561
0.562561
0.562561
0.562561
0.562561
0.562561
0.562561
0.562561
0.562561
0.562561
0.562561
0.562561
0.562561
0.56256
0.56256
0.56256
0.56256
0.56256
0.56256
0.56256
0.56256
0.56256
0.56256
0.56256
0.56256
0.56256
0.56256
0.562559
0.562559
0.562559
0.562559
0.562559
0.562559
0.562559
0.562559
0.562559
0.562559
0.562559
0.562559
0.562559
0.562559
0.562559
0.562559
0.562559
0.562558
0.562558