<?xml version="1.0"?>
<VTKFile type="UnstructuredGrid" version="0.1" byte_order="LittleEndian">
<UnstructuredGrid>
<Piece NumberOfPoints="5000" NumberOfCells="4000">
<PointData Scalars="Reaction 0">
<DataArray type="Float32" Name="Reaction 0" format="ascii">
0.465297
0.465297
0.465297
0.465297
0.465297
0.465297
0.465297
0.465298
0.465298
0.465298
0.465298
0.465298
0.465299
0.465299
0.4653
0.4653
0.4653
0.4653
0.465301
0.465302
0.465302
0.465302
0.465303
0.465303
0.465304
0.465304
0.465305
0.465305
0.465306
0.465307
0.465307
0.465308
0.465309
0.46531
0.465311
0.465311
0.465312
0.465313
0.465314
0.465315
0.465315
0.465316
0.465317
0.465318
0.46532
0.46532
0.465321
0.465322
0.465323
0.465325
0.465325
0.465326
0.465328
0.465329
0.465331
0.465331
0.465332
0.465334
0.465335
0.465337
0.465337
0.465339
0.465341
0.465342
0.465344
0.465344
0.465346
0.465348
0.46535
0.465352
0.465352
0.465354
0.465356
0.465358
0.46536
0.46536
0.465362
0.465364
0.465366
0.465368
0.465368
0.46537
0.465373
0.465375
0.465377
0.465377
0.46538
0.465382
0.465385
0.465387
0.465387
0.46539
0.465392
0.465395
0.465397
0.465397
0.4654
0.465403
0.465406
0.465408
0.465408
0.465411
0.465414
0.465417
0.46542
0.46542
0.465423
0.465426
0.465429
0.465432
0.465432
0.465435
0.465438
0.465441
0.465444
0.465444
0.465447
0.465451
0.465454
0.465457
0.465457
0.465461
0.465464
0.465467
0.465471
0.465471
0.465474
0.465478
0.465481
0.465485
0.465485
0.465489
0.465492
0.465496
0.4655
0.4655
0.465504
0.465507
0.465511
0.465515
0.465515
0.465519
0.465523
0.465527
0.465531
0.465531
0.465535
0.465539
0.465543
0.465547
0.465547
0.465552
0.465556
0.46556
0.465564
0.465564
0.465569
0.465573
0.465577
0.465582
0.465582
0.465586
0.465591
0.465595
0.4656
0.4656
0.465605
0.465609
0.465614
0.465619
0.465619
0.465623
0.465628
0.465633
0.465638
0.465638
0.465643
0.465648
0.465653
0.465658
0.465658
0.465663
0.465668
0.465673
0.465678
0.465678
0.465683
0.465688
0.465693
0.465699
0.465699
0.465704
0.465709
0.465715
0.46572
0.46572
0.465726
0.465731
0.465737
0.465742
0.465742
0.465748
0.465753
0.465759
0.465765
0.465765
0.46577
0.465776
0.465782
0.465788
0.465788
0.465794
0.4658
0.465805
0.465811
0.465811
0.465817
0.465823
0.46583
0.465836
0.465836
0.465842
0.465848
0.465854
0.46586
0.46586
0.465867
0.465873
0.465879
0.465886
0.465886
0.465892
0.465899
0.465905
0.465912
0.465912
0.465918
0.465925
0.465931
0.465938
0.465938
0.465945
0.465952
0.465958
0.465965
0.465965
0.465972
0.465979
0.465986
0.465993
0.465993
0.466
0.466007
0.466014
0.466021
0.466021
0.466028
0.466035
0.466042
0.466049
0.466049
0.466057
0.466064
0.466071
0.466079
0.466079
0.466086
0.466094
0.466101
0.466108
0.466108
0.466116
0.466124
0.466131
0.466139
0.466139
0.466147
0.466154
0.466162
0.46617
0.46617
0.466178
0.466185
0.466193
0.466201
0.466201
0.466209
0.466217
0.466225
0.466233
0.466233
0.466241
0.466249
0.466258
0.466266
0.466266
0.466274
0.466282
0.466291
0.466299
0.466299
0.466307
0.466316
0.466324
0.466333
0.466333
0.466341
0.46635
0.466358
0.466367
0.466367
0.466376
0.466384
0.466393
0.466402
0.466402
0.466411
0.466419
0.466428
0.466437
0.466437
0.466446
0.466455
0.466464
0.466473
0.466473
0.466482
0.466491
0.4665
0.46651
0.46651
0.466519
0.466528
0.466537
0.466547
0.466547
0.466556
0.466565
0.466575
0.466584
0.466584
0.466594
0.466603
0.466613
0.466622
0.466622
0.466632
0.466642
0.466651
0.466661
0.466661
0.466671
0.466681
0.466691
0.4667
0.4667
0.46671
0.46672
0.46673
0.46674
0.46674
0.46675
0.46676
0.466771
0.466781
0.466781
0.466791
0.466801
0.466811
0.466822
0.466822
0.466832
0.466842
0.466853
0.466863
0.466863
0.466874
0.466884
0.466895
0.466905
0.466905
0.466916
0.466927
0.466937
0.466948
0.466948
0.466959
0.466969
0.46698
0.466991
0.466991
0.467002
0.467013
0.467024
0.467035
0.467035
0.467046
0.467057
0.467068
0.467079
0.467079
0.46709
0.467102
0.467113
0.467124
0.467124
0.467135
0.467147
0.467158
0.46717
0.46717
0.467181
0.467193
0.467204
0.467216
0.467216
0.467227
0.467239
0.46725
0.467262
0.467262
0.467274
0.467286
0.467297
0.467309
0.467309
0.467321
0.467333
0.467345
0.467357
0.467357
0.467369
0.467381
0.467393
0.467405
0.467405
0.467417
0.46743
0.467442
0.467454
0.467454
0.467466
0.467479
0.467491
0.467503
0.467503
0.467516
0.467528
0.467541
0.467553
0.467553
0.467566
0.467579
0.467591
0.467604
0.467604
0.467617
0.467629
0.467642
0.467655
0.467655
0.467668
0.467681
0.467694
0.467707
0.467707
0.46772
0.467733
0.467746
0.467759
0.467759
0.467772
0.467785
0.467798
0.467812
0.467812
0.467825
0.467838
0.467851
0.467865
0.467865
0.467878
0.467892
0.467905
0.467919
0.467919
0.467932
0.467946
0.46796
0.467973
0.467973
0.467987
0.468001
0.468014
0.468028
0.468028
0.468042
0.468056
0.46807
0.468084
0.468084
0.468098
0.468112
0.468126
0.46814
0.46814
0.468154
0.468168
0.468182
0.468197
0.468197
0.468211
0.468225
0.468239
0.468254
0.468254
0.468268
0.468283
0.468297
0.468312
0.468312
0.468326
0.468341
0.468355
0.46837
0.46837
0.468385
0.468399
0.468414
0.468429
0.468429
0.468444
0.468459
0.468474
0.468488
0.468488
0.468503
0.468518
0.468533
0.468549
0.468549
0.468564
0.468579
0.468594
0.468609
0.468609
0.468624
0.46864
0.468655
0.46867
0.46867
0.468686
0.468701
0.468717
0.468732
0.468732
0.468748
0.468763
0.468779
0.468794
0.468794
0.46881
0.468826
0.468842
0.468857
0.468857
0.468873
0.468889
0.468905
0.468921
0.468921
0.468937
0.468953
0.468969
0.468985
0.468985
0.469001
0.469017
0.469033
0.469049
0.469049
0.469066
0.469082
0.469098
0.469115
0.469115
0.469131
0.469147
0.469164
0.46918
0.46918
0.469197
0.469213
0.46923
0.469247
0.469247
0.469263
0.46928
0.469297
0.469313
0.469313
0.46933
0.469347
0.469364
0.469381
0.469381
0.469398
0.469415
0.469432
0.469449
0.469449
0.469466
0.469483
0.4695
0.469517
0.469517
0.469535
0.469552
0.469569
0.469587
0.469587
0.469604
0.469621
0.469639
0.469656
0.469656
0.469674
0.469691
0.469709
0.469727
0.469727
0.469744
0.469762
0.46978
0.469797
0.469797
0.469815
0.469833
0.469851
0.469869
0.469869
0.469887
0.469905
0.469923
0.469941
0.469941
0.469959
0.469977
0.469995
0.470013
0.470013
0.470031
0.47005
0.470068
0.470086
0.470086
0.470105
0.470123
0.470141
0.47016
0.47016
0.470178
0.470197
0.470216
0.470234
0.470234
0.470253
0.470271
0.47029
0.470309
0.470309
0.470328
0.470347
0.470365
0.470384
0.470384
0.470403
0.470422
0.470441
0.47046
0.47046
0.470479
0.470498
0.470518
0.470537
0.470537
0.470556
0.470575
0.470595
0.470614
0.470614
0.470633
0.470653
0.470672
0.470691
0.470691
0.470711
0.470731
0.47075
0.47077
0.47077
0.470789
0.470809
0.470829
0.470848
0.470848
0.470868
0.470888
0.470908
0.470928
0.470928
0.470948
0.470968
0.470988
0.471008
0.471008
0.471028
0.471048
0.471068
0.471088
0.471088
0.471108
0.471129
0.471149
0.471169
0.471169
0.47119
0.47121
0.47123
0.471251
0.471251
0.471271
0.471292
0.471313
0.471333
0.471333
0.471354
0.471374
0.471395
0.471416
0.471416
0.471437
0.471457
0.471478
0.471499
0.471499
0.47152
0.471541
0.471562
0.471583
0.471583
0.471604
0.471625
0.471646
0.471668
0.471668
0.471689
0.47171
0.471731
0.471753
0.471753
0.471774
0.471795
0.471817
0.471838
0.471838
0.47186
0.471881
0.471903
0.471925
0.471925
0.471946
0.471968
0.47199
0.472011
0.472011
0.472033
0.472055
0.472077
0.472099
0.472099
0.472121
0.472143
0.472165
0.472187
0.472187
0.472209
0.472231
0.472253
0.472275
0.472275
0.472297
0.47232
0.472342
0.472364
0.472364
0.472387
0.472409
0.472431
0.472454
0.472454
0.472476
0.472499
0.472521
0.472544
0.472544
0.472567
0.472589
0.472612
0.472635
0.472635
0.472658
0.47268
0.472703
0.472726
0.472726
0.472749
0.472772
0.472795
0.472818
0.472818
0.472841
0.472864
0.472887
0.472911
0.472911
0.472934
0.472957
0.47298
0.473004
0.473004
0.473027
0.47305
0.473074
0.473097
0.473097
0.473121
0.473144
0.473168
0.473192
0.473192
0.473215
0.473239
0.473263
0.473286
0.473286
0.47331
0.473334
0.473358
0.473382
0.473382
0.473406
0.47343
0.473454
0.473478
0.473478
0.473502
0.473526
0.47355
0.473574
0.473574
0.473599
0.473623
0.473647
0.473671
0.473671
0.473696
0.47372
0.473745
0.473769
0.473769
0.473794
0.473818
0.473843
0.473867
0.473867
0.473892
0.473917
0.473942
0.473966
0.473966
0.473991
0.474016
0.474041
0.474066
0.474066
0.474091
0.474116
0.474141
0.474166
0.474166
0.474191
0.474216
0.474241
0.474266
0.474266
0.474292
0.474317
0.474342
0.474368
0.474368
0.474393
0.474418
0.474444
0.474469
0.474469
0.474495
0.47452
0.474546
0.474572
0.474572
0.474597
0.474623
0.474649
0.474675
0.474675
0.4747
0.474726
0.474752
0.474778
0.474778
0.474804
0.47483
0.474856
0.474882
0.474882
0.474908
0.474934
0.47496
0.474987
0.474987
0.475013
0.475039
0.475066
0.475092
0.475092
0.475118
0.475145
0.475171
0.475198
0.475198
0.475224
0.475251
0.475277
0.475304
0.475304
0.475331
0.475358
0.475384
0.475411
0.475411
0.475438
0.475465
0.475492
0.475519
0.475519
0.475546
0.475573
0.4756
0.475627
0.475627
0.475654
0.475681
0.475708
0.475735
0.475735
0.475763
0.47579
0.475817
0.475845
0.475845
0.475872
0.4759
0.475927
0.475955
0.475955
0.475982
0.47601
0.476037
0.476065
0.476065
0.476093
0.476121
0.476148
0.476176
0.476176
0.476204
0.476232
0.47626
0.476288
0.476288
0.476316
0.476344
0.476372
0.4764
0.4764
0.476428
0.476456
0.476485
0.476513
0.476513
0.476541
0.476569
0.476598
0.476626
0.476626
0.476655
0.476683
0.476712
0.47674
0.47674
0.476769
0.476797
0.476826
0.476855
0.476855
0.476883
0.476912
0.476941
0.47697
0.47697
0.476999
0.477028
0.477057
0.477086
0.477086
0.477115
0.477144
0.477173
0.477202
0.477202
0.477231
0.47726
0.477289
0.477319
0.477319
0.477348
0.477377
0.477407
0.477436
0.477436
0.477466
0.477495
0.477525
0.477554
0.477554
0.477584
0.477614
0.477643
0.477673
0.477673
0.477703
0.477733
0.477762
0.477792
0.477792
0.477822
0.477852
0.477882
0.477912
0.477912
0.477942
0.477972
0.478002
0.478032
0.478032
0.478063
0.478093
0.478123
0.478153
0.478153
0.478184
0.478214
0.478245
0.478275
0.478275
0.478306
0.478336
0.478367
0.478397
0.478397
0.478428
0.478459
0.478489
0.47852
0.47852
0.478551
0.478582
0.478612
0.478643
0.478643
0.478674
0.478705
0.478736
0.478767
0.478767
0.478798
0.47883
0.478861
0.478892
0.478892
0.478923
0.478954
0.478986
0.479017
0.479017
0.479048
0.47908
0.479111
0.479143
0.479143
0.479174
0.479206
0.479237
0.479269
0.479269
0.479301
0.479332
0.479364
0.479396
0.479396
0.479428
0.47946
0.479492
0.479523
0.479523
0.479555
0.479587
0.479619
0.479652
0.479652
0.479684
0.479716
0.479748
0.47978
0.47978
0.479812
0.479845
0.479877
0.479909
0.479909
0.479942
0.479974
0.480007
0.480039
0.480039
0.480072
0.480105
0.480137
0.48017
0.48017
0.480203
0.480235
0.480268
0.480301
0.480301
0.480334
0.480367
0.4804
0.480433
0.480433
0.480466
0.480499
0.480532
0.480565
0.480565
0.480598
0.480631
0.480664
0.480698
0.480698
0.480731
0.480764
0.480798
0.480831
0.480831
0.480865
0.480898
0.480932
0.480965
0.480965
0.480999
0.481032
0.481066
0.4811
0.4811
0.481133
0.481167
0.481201
0.481235
0.481235
0.481269
0.481303
0.481337
0.481371
0.481371
0.481405
0.481439
0.481473
0.481507
0.481507
0.481541
0.481576
0.48161
0.481644
0.481644
0.481679
0.481713
0.481747
0.481782
0.481782
0.481816
0.481851
0.481885
0.48192
0.48192
0.481955
0.481989
0.482024
0.482059
0.482059
0.482094
0.482128
0.482163
0.482198
0.482198
0.482233
0.482268
0.482303
0.482338
0.482338
0.482373
0.482408
0.482444
0.482479
0.482479
0.482514
0.482549
0.482585
0.48262
0.48262
0.482655
0.482691
0.482726
0.482762
0.482762
0.482797
0.482833
0.482869
0.482904
0.482904
0.48294
0.482976
0.483011
0.483047
0.483047
0.483083
0.483119
0.483155
0.483191
0.483191
0.483227
0.483263
0.483299
0.483335
0.483335
0.483371
0.483407
0.483444
0.48348
0.48348
0.483516
0.483553
0.483589
0.483625
0.483625
0.483662
0.483698
0.483735
0.483771
0.483771
0.483808
0.483845
0.483881
0.483918
0.483918
0.483955
0.483992
0.484028
0.484065
0.484065
0.484102
0.484139
0.484176
0.484213
0.484213
0.48425
0.484287
0.484324
0.484362
0.484362
0.484399
0.484436
0.484473
0.484511
0.484511
0.484548
0.484585
0.484623
0.48466
0.48466
0.484698
0.484735
0.484773
0.48481
0.48481
0.484848
0.484886
0.484924
0.484961
0.484961
0.484999
0.485037
0.485075
0.485113
0.485113
0.485151
0.485189
0.485227
0.485265
0.485265
0.485303
0.485341
0.485379
0.485418
0.485418
0.485456
0.485494
0.485532
0.485571
0.485571
0.485609
0.485648
0.485686
0.485725
0.485725
0.485763
0.485802
0.485841
0.485879
0.485879
0.485918
0.485957
0.485996
0.486034
0.486034
0.486073
0.486112
0.486151
0.48619
0.48619
0.486229
0.486268
0.486307
0.486346
0.486346
0.486386
0.486425
0.486464
0.486503
0.486503
0.486543
0.486582
0.486621
0.486661
0.486661
0.4867
0.48674
0.48678
0.486819
0.486819
0.486859
0.486898
0.486938
0.486978
0.486978
0.487018
0.487058
0.487097
0.487137
0.487137
0.487177
0.487217
0.487257
0.487297
0.487297
0.487337
0.487378
0.487418
0.487458
0.487458
0.487498
0.487538
0.487579
0.487619
0.487619
0.48766
0.4877
0.48774
0.487781
0.487781
0.487822
0.487862
0.487903
0.487943
0.487943
0.487984
0.488025
0.488066
0.488107
0.488107
0.488147
0.488188
0.488229
0.48827
0.48827
0.488311
0.488352
0.488393
0.488435
0.488435
0.488476
0.488517
0.488558
0.488599
0.488599
0.488641
0.488682
0.488724
0.488765
0.488765
0.488806
0.488848
0.48889
0.488931
0.488931
0.488973
0.489014
0.489056
0.489098
0.489098
0.48914
0.489182
0.489223
0.489265
0.489265
0.489307
0.489349
0.489391
0.489433
0.489433
0.489475
0.489518
0.48956
0.489602
0.489602
0.489644
0.489687
0.489729
0.489771
0.489771
0.489814
0.489856
0.489899
0.489941
0.489941
0.489984
0.490026
0.490069
0.490112
0.490112
0.490154
0.490197
0.49024
0.490283
0.490283
0.490326
0.490368
0.490411
0.490454
0.490454
0.490497
0.490541
0.490584
0.490627
0.490627
0.49067
0.490713
0.490756
0.4908
0.4908
0.490843
0.490886
0.49093
0.490973
0.490973
0.491017
0.49106
0.491104
0.491148
0.491148
0.491191
0.491235
0.491279
0.491322
0.491322
0.491366
0.49141
0.491454
0.491498
0.491498
0.491542
0.491586
0.49163
0.491674
0.491674
0.491718
0.491762
0.491806
0.491851
0.491851
0.491895
0.491939
0.491984
0.492028
0.492028
0.492073
0.492117
0.492161
0.492206
0.492206
0.492251
0.492295
0.49234
0.492385
0.492385
0.492429
0.492474
0.492519
0.492564
0.492564
0.492609
0.492654
0.492699
0.492744
0.492744
0.492789
0.492834
0.492879
0.492924
0.492924
0.492969
0.493015
0.49306
0.493105
0.493105
0.493151
0.493196
0.493242
0.493287
0.493287
0.493333
0.493378
0.493424
0.493469
0.493469
0.493515
0.493561
0.493607
0.493652
0.493652
0.493698
0.493744
0.49379
0.493836
0.493836
0.493882
0.493928
0.493974
0.49402
0.49402
0.494067
0.494113
0.494159
0.494205
0.494205
0.494252
0.494298
0.494344
0.494391
0.494391
0.494437
0.494484
0.49453
0.494577
0.494577
0.494624
0.49467
0.494717
0.494764
0.494764
0.494811
0.494857
0.494904
0.494951
0.494951
0.494998
0.495045
0.495092
0.495139
0.495139
0.495186
0.495233
0.495281
0.495328
0.495328
0.495375
0.495423
0.49547
0.495517
0.495517
0.495565
0.495612
0.49566
0.495707
0.495707
0.495755
0.495802
0.49585
0.495898
0.495898
0.495946
0.495993
0.496041
0.496089
0.496089
0.496137
0.496185
0.496233
0.496281
0.496281
0.496329
0.496377
0.496425
0.496473
0.496473
0.496522
0.49657
0.496618
0.496667
0.496667
0.496715
0.496763
0.496812
0.49686
0.49686
0.496909
0.496958
0.497006
0.497055
0.497055
0.497104
0.497152
0.497201
0.49725
0.49725
0.497299
0.497348
0.497397
0.497446
0.497446
0.497495
0.497544
0.497593
0.497642
0.497642
0.497691
0.49774
0.49779
0.497839
0.497839
0.497888
0.497938
0.497987
0.498037
0.498037
0.498086
0.498136
0.498185
0.498235
0.498235
0.498285
0.498334
0.498384
0.498434
0.498434
0.498484
0.498534
0.498584
0.498633
0.498633
0.498683
0.498734
0.498784
0.498834
0.498834
0.498884
0.498934
0.498984
0.499035
0.499035
0.499085
0.499135
0.499186
0.499236
0.499236
0.499287
0.499337
0.499388
0.499438
0.499438
0.499489
0.49954
0.49959
0.499641
0.499641
0.499692
0.499743
0.499794
0.499845
0.499845
0.499895
0.499946
0.499998
0.500049
0.500049
0.5001
0.500151
0.500202
0.500253
0.500253
0.500305
0.500356
0.500407
0.500459
0.500459
0.50051
0.500562
0.500613
0.500665
0.500665
0.500716
0.500768
0.50082
0.500872
0.500872
0.500923
0.500975
0.501027
0.501079
0.501079
0.501131
0.501183
0.501235
0.501287
0.501287
0.501339
0.501391
0.501443
0.501496
0.501496
0.501548
0.5016
0.501653
0.501705
0.501705
0.501757
0.50181
0.501862
0.501915
0.501915
0.501967
0.50202
0.502073
0.502126
0.502126
0.502178
0.502231
0.502284
0.502337
0.502337
0.50239
0.502443
0.502496
0.502549
0.502549
0.502602
0.502655
0.502708
0.502761
0.502761
0.502815
0.502868
0.502921
0.502975
0.502975
0.503028
0.503081
0.503135
0.503188
0.503188
0.503242
0.503296
0.503349
0.503403
0.503403
0.503457
0.503511
0.503564
0.503618
0.503618
0.503672
0.503726
0.50378
0.503834
0.503834
0.503888
0.503942
0.503997
0.504051
0.504051
0.504105
0.504159
0.504214
0.504268
0.504268
0.504322
0.504377
0.504431
0.504486
0.504486
0.50454
0.504595
0.50465
0.504704
0.504704
0.504759
0.504814
0.504869
0.504924
0.504924
0.504978
0.505033
0.505088
0.505143
0.505143
0.505198
0.505254
0.505309
0.505364
0.505364
0.505419
0.505474
0.50553
0.505585
0.505585
0.50564
0.505696
0.505751
0.505807
0.505807
0.505863
0.505918
0.505974
0.506029
0.506029
0.506085
0.506141
0.506197
0.506253
0.506253
0.506309
0.506364
0.50642
0.506476
0.506476
0.506533
0.506589
0.506645
0.506701
0.506701
0.506757
0.506814
0.50687
0.506926
0.506926
0.506983
0.507039
0.507096
0.507152
0.507152
0.507209
0.507265
0.507322
0.507379
0.507379
0.507435
0.507492
0.507549
0.507606
0.507606
0.507663
0.50772
0.507777
0.507834
0.507834
0.507891
0.507948
0.508005
0.508062
0.508062
0.508119
0.508177
0.508234
0.508291
0.508291
0.508349
0.508406
0.508464
0.508521
0.508521
0.508579
0.508637
0.508694
0.508752
0.508752
0.50881
0.508867
0.508925
0.508983
0.508983
0.509041
0.509099
0.509157
0.509215
0.509215
0.509273
0.509331
0.509389
0.509448
0.509448
0.509506
0.509564
0.509623
0.509681
0.509681
0.509739
0.509798
0.509856
0.509915
0.509915
0.509973
0.510032
0.510091
0.51015
0.51015
0.510208
0.510267
0.510326
0.510385
0.510385
0.510444
0.510503
0.510562
0.510621
0.510621
0.51068
0.510739
0.510798
0.510858
0.510858
0.510917
0.510976
0.511035
0.511095
0.511095
0.511154
0.511214
0.511273
0.511333
0.511333
0.511393
0.511452
0.511512
0.511572
0.511572
0.511631
0.511691
0.511751
0.511811
0.511811
0.511871
0.511931
0.511991
0.512051
0.512051
0.512111
0.512171
0.512232
0.512292
0.512292
0.512352
0.512413
0.512473
0.512533
0.512533
0.512594
0.512654
0.512715
0.512775
0.512775
0.512836
0.512897
0.512958
0.513018
0.513018
0.513079
0.51314
0.513201
0.513262
0.513262
0.513323
0.513384
0.513445
0.513506
0.513506
0.513567
0.513628
0.51369
0.513751
0.513751
0.513812
0.513874
0.513935
0.513997
0.513997
0.514058
0.51412
0.514181
0.514243
0.514243
0.514304
0.514366
0.514428
0.51449
0.51449
0.514552
0.514614
0.514675
0.514737
0.514737
0.514799
0.514862
0.514924
0.514986
0.514986
0.515048
0.51511
0.515173
0.515235
0.515235
0.515297
0.51536
0.515422
0.515485
0.515485
0.515547
0.51561
0.515672
0.515735
0.515735
0.515798
0.515861
0.515923
0.515986
0.515986
0.516049
0.516112
0.516175
0.516238
0.516238
0.516301
0.516364
0.516427
0.516491
0.516491
0.516554
0.516617
0.51668
0.516744
0.516744
0.516807
0.516871
0.516934
0.516998
0.516998
0.517061
0.517125
0.517189
0.517252
0.517252
0.517316
0.51738
0.517444
0.517508
0.517508
0.517572
0.517636
0.5177
0.517764
0.517764
0.517828
0.517892
0.517956
0.518021
0.518021
0.518085
0.518149
0.518214
0.518278
0.518278
0.518342
0.518407
0.518472
0.518536
0.518536
0.518601
0.518666
0.51873
0.518795
0.518795
0.51886
0.518925
0.51899
0.519055
0.519055
0.51912
0.519185
0.51925
0.519315
0.519315
0.51938
0.519445
0.519511
0.519576
0.519576
0.519641
0.519707
0.519772
0.519838
0.519838
0.519903
0.519969
0.520034
0.5201
0.5201
0.520166
0.520231
0.520297
0.520363
0.520363
0.520429
0.520495
0.520561
0.520627
0.520627
0.520693
0.520759
0.520825
0.520891
0.520891
0.520958
0.521024
0.52109
0.521157
0.521157
0.521223
0.52129
0.521356
0.521423
0.521423
0.521489
0.521556
0.521623
0.521689
0.521689
0.521756
0.521823
0.52189
0.521957
0.521957
0.522024
0.522091
0.522158
0.522225
0.522225
0.522292
0.522359
0.522426
0.522494
0.522494
0.522561
0.522628
0.522696
0.522763
0.522763
0.522831
0.522898
0.522966
0.523033
0.523033
0.523101
0.523169
0.523237
0.523304
0.523304
0.523372
0.52344
0.523508
0.523576
0.523576
0.523644
0.523712
0.52378
0.523849
0.523849
0.523917
0.523985
0.524053
0.524122
0.524122
0.52419
0.524259
0.524327
0.524396
0.524396
0.524464
0.524533
0.524602
0.52467
0.52467
0.524739
0.524808
0.524877
0.524946
0.524946
0.525015
0.525084
0.525153
0.525222
0.525222
0.525291
0.52536
0.525429
0.525498
0.525498
0.525568
0.525637
0.525707
0.525776
0.525776
0.525845
0.525915
0.525985
0.526054
0.526054
0.526124
0.526194
0.526263
0.526333
0.526333
0.526403
0.526473
0.526543
0.526613
0.526613
0.526683
0.526753
0.526823
0.526893
0.526893
0.526964
0.527034
0.527104
0.527174
0.527174
0.527245
0.527315
0.527386
0.527456
0.527456
0.527527
0.527598
0.527668
0.527739
0.527739
0.52781
0.527881
0.527951
0.528022
0.528022
0.528093
0.528164
0.528235
0.528306
0.528306
0.528378
0.528449
0.52852
0.528591
0.528591
0.528663
0.528734
0.528805
0.528877
0.528877
0.528948
0.52902
0.529092
0.529163
0.529163
0.529235
0.529307
0.529378
0.52945
0.52945
0.529522
0.529594
0.529666
0.529738
0.529738
0.52981
0.529882
0.529954
0.530027
0.530027
0.530099
0.530171
0.530244
0.530316
0.530316
0.530388
0.530461
0.530533
0.530606
0.530606
0.530679
0.530751
0.530824
0.530897
0.530897
0.53097
0.531042
0.531115
0.531188
0.531188
0.531261
0.531334
0.531407
0.531481
0.531481
0.531554
0.531627
0.5317
0.531774
0.531774
0.531847
0.53192
0.531994
0.532067
0.532067
0.532141
0.532215
0.532288
0.532362
0.532362
0.532436
0.532509
0.532583
0.532657
0.532657
0.532731
0.532805
0.532879
0.532953
0.532953
0.533027
0.533102
0.533176
0.53325
0.53325
0.533324
0.533399
0.533473
0.533548
0.533548
0.533622
0.533697
0.533771
0.533846
0.533846
0.533921
0.533995
0.53407
0.534145
0.534145
0.53422
0.534295
0.53437
0.534445
0.534445
0.53452
0.534595
0.53467
0.534745
0.534745
0.53482
0.534896
0.534971
0.535047
0.535047
0.535122
0.535197
0.535273
0.535349
0.535349
0.535424
0.5355
0.535576
0.535651
0.535651
0.535727
0.535803
0.535879
0.535955
0.535955
0.536031
0.536107
0.536183
0.536259
0.536259
0.536336
0.536412
0.536488
0.536565
0.536565
0.536641
0.536717
0.536794
0.53687
0.53687
0.536947
0.537024
0.5371
0.537177
0.537177
0.537254
0.537331
0.537408
0.537485
0.537485
0.537562
0.537639
0.537716
0.537793
0.537793
0.53787
0.537947
0.538024
0.538102
0.538102
0.538179
0.538257
0.538334
0.538412
0.538412
0.538489
0.538567
0.538644
0.538722
0.538722
0.5388
0.538878
0.538955
0.539033
0.539033
0.539111
0.539189
0.539267
0.539345
0.539345
0.539424
0.539502
0.53958
0.539658
0.539658
0.539737
0.539815
0.539893
0.539972
0.539972
0.54005
0.540129
0.540208
0.540286
0.540286
0.540365
0.540444
0.540523
0.540601
0.540601
0.54068
0.540759
0.540838
0.540917
0.540917
0.540996
0.541076
0.541155
0.541234
0.541234
0.541313
0.541393
0.541472
0.541552
0.541552
0.541631
0.541711
0.54179
0.54187
0.54187
0.54195
0.542029
0.542109
0.542189
0.542189
0.542269
0.542349
0.542429
0.542509
0.542509
0.542589
0.542669
0.542749
0.54283
0.54283
0.54291
0.54299
0.543071
0.543151
0.543151
0.543231
0.543312
0.543393
0.543473
0.543473
0.543554
0.543635
0.543715
0.543796
0.543796
0.543877
0.543958
0.544039
0.54412
0.54412
0.544201
0.544282
0.544363
0.544445
0.544445
0.544526
0.544607
0.544689
0.54477
0.54477
0.544851
0.544933
0.545015
0.545096
0.545096
0.545178
0.54526
0.545341
0.545423
0.545423
0.545505
0.545587
0.545669
0.545751
0.545751
0.545833
0.545915
0.545997
0.54608
0.54608
0.546162
0.546244
0.546327
0.546409
0.546409
0.546491
0.546574
0.546657
0.546739
0.546739
0.546822
0.546905
0.546987
0.54707
0.54707
0.547153
0.547236
0.547319
0.547402
0.547402
0.547485
0.547568
0.547651
0.547735
0.547735
0.547818
0.547901
0.547984
0.548068
0.548068
0.548151
0.548235
0.548318
0.548402
0.548402
0.548486
0.54857
0.548653
0.548737
0.548737
0.548821
0.548905
0.548989
0.549073
0.549073
0.549157
0.549241
0.549325
0.54941
0.54941
0.549494
0.549578
0.549663
0.549747
0.549747
0.549831
0.549916
0.550001
0.550085
0.550085
0.55017
0.550255
0.550339
0.550424
0.550424
0.550509
0.550594
0.550679
0.550764
0.550764
0.550849
0.550934
0.55102
0.551105
0.551105
0.55119
0.551276
0.551361
0.551446
0.551446
0.551532
0.551617
0.551703
0.551789
0.551789
0.551874
0.55196
0.552046
0.552132
0.552132
0.552218
0.552304
0.55239
0.552476
0.552476
0.552562
0.552648
0.552734
0.552821
0.552821
0.552907
0.552993
0.55308
0.553166
0.553166
0.553253
0.553339
0.553426
0.553513
0.553513
0.5536
0.553686
0.553773
0.55386
0.55386
0.553947
0.554034
0.554121
0.554208
0.554208
0.554295
0.554383
0.55447
0.554557
0.554557
0.554644
0.554732
0.554819
0.554907
0.554907
0.554994
0.555082
0.55517
0.555257
0.555257
0.555345
0.555433
0.555521
0.555609
0.555609
0.555697
0.555785
0.555873
0.555961
0.555961
0.556049
0.556138
0.556226
0.556314
0.556314
0.556403
0.556491
0.55658
0.556668
0.556668
0.556757
0.556845
0.556934
0.557023
0.557023
0.557112
0.557201
0.55729
0.557379
0.557379
0.557468
0.557557
0.557646
0.557735
0.557735
0.557824
0.557914
0.558003
0.558092
0.558092
0.558182
0.558271
0.558361
0.55845
0.55845
0.55854
0.55863
0.55872
0.558809
0.558809
0.558899
0.558989
0.559079
0.559169
0.559169
0.559258
0.559348
0.559437
0.559525
0.559525
0.559613
0.559698
0.55978
0.559859
0.559859
0.55993
0.559985
0.560025
0.560048
0.560048
0.560069
0.560089
0.560109
0.560127
0.560127
0.560146
0.560165
0.560184
0.560203
0.560203
0.560221
0.56024
0.560259
0.560278
0.560278
0.560297
0.560316
0.560335
0.560354
0.560354
0.560373
0.560391
0.56041
0.560429
0.560429
0.560448
0.560467
0.560486
0.560505
0.560505
0.560524
0.560543
0.560562
0.560581
0.560581
0.5606
0.560619
0.560639
0.560658
0.560658
0.560677
0.560696
0.560715
0.560734
0.560734
0.560753
0.560772
0.560791
0.56081
0.56081
0.56083
0.560849
0.560868
0.560887
0.560887
0.560906
0.560925
0.560944
0.560964
0.560964
0.560983
0.561002
0.561021
0.56104
0.56104
0.56106
0.561079
0.561098
0.561117
0.561117
0.561136
0.561156
0.561175
0.561194
0.561194
0.561213
0.561232
0.561252
0.561271
0.561271
0.56129
0.561308
0.561326
0.561344
0.561344
0.561362
0.561377
0.561389
0.561399
0.561399
0.561405
0.561408
0.561409
0.561408
0.561408
0.561408
0.561407
0.561406
0.561405
0.561405
0.561405
0.561404
0.561403
0.561402
0.561402
0.561401
0.5614
0.561399
0.561399
0.561399
0.561398
0.561397
0.561396
0.561395
0.561395
0.561394
0.561393
0.561392
0.561391
0.561391
0.56139
0.561389
0.561388
0.561387
0.561387
0.561386
0.561386
0.561385
0.561384
0.561384
0.561383
0.561382
0.561381
0.56138
0.56138
0.561379
0.561378
0.561377
0.561376
0.561376
0.561375
0.561374
0.561373
0.561372
0.561372
0.561371
0.56137
0.561369
0.561368
0.561368
0.561367
0.561366
0.561365
0.561364
0.561364
0.561363
0.561362
0.561361
0.56136
0.56136
0.561359
0.561357
0.561356
0.561355
0.561355
0.561354
0.561353
0.561352
0.561351
0.561351
0.56135
0.561349
0.561348
0.561347
0.561347
0.561346
0.561344
0.561343
0.561342
0.561342
0.56134
0.561339
0.561338
0.561337
0.561337
0.561335
0.561334
0.561332
0.56133
0.56133
0.561329
0.561327
0.561326
0.561324
0.561324
0.561323
0.561321
0.56132
0.561318
0.561318
0.561317
0.561315
0.561313
0.561312
0.561312
0.56131
0.561309
0.561307
0.561306
0.561306
0.561304
0.561303
0.561301
0.561299
0.561299
0.561298
0.561296
0.561295
0.561293
0.561293
0.561292
0.56129
0.561289
0.561287
0.561287
0.561286
0.561284
0.561282
0.561281
0.561281
0.561279
0.561278
0.561276
0.561275
0.561275
0.561273
0.561272
0.56127
0.561269
0.561269
0.561267
0.561266
0.561264
0.561262
0.561262
0.561261
0.561259
0.561258
0.561256
0.561256
0.561255
0.561253
0.561252
0.56125
0.56125
0.561249
0.561247
0.561246
0.561244
0.561244
0.561243
0.561241
0.56124
0.561239
0.561239
0.561238
0.561237
0.561236
0.561236
0.561236
0.561235
0.561235
0.561235
0.561235
0.561235
0.561234
0.561234
0.561234
0.561234
0.561234
0.561233
0.561233
0.561233
0.561233
0.561233
0.561232
0.561232
0.561232
0.561232
0.561232
0.561231
0.561231
0.561231
0.561231
0.561231
0.56123
0.56123
0.56123
0.56123
0.56123
0.561229
0.561229
0.561229
0.561229
0.561229
0.561229
0.561228
0.561228
0.561228
0.561228
0.561228
0.561227
0.561227
0.561227
0.561227
0.561227
0.561226
0.561226
0.561226
0.561226
0.561226
0.561226
0.561225
0.561225
0.561225
0.561225
0.561225
0.561224
0.561224
0.561224
0.561224
0.561224
0.561223
0.561223
0.561223
0.561223
0.561223
0.561223
0.561222
0.561222
0.561222
0.561222
0.561222
0.561221
0.561221
0.561221
0.561221
0.561221
0.561221
0.561221
0.561221
0.561221
0.561221
0.561221
0.561221
0.561221
0.561221
0.561221
0.561222
0.561222
0.561222
0.561222
0.561222
0.561222
0.561222
0.561222
0.561223
0.561223
0.561223
0.561223
0.561223
0.561223
0.561224
0.561224
0.561224
0.561224
0.561224
0.561224
0.561224
0.561224
0.561225
0.561225
0.561225
0.561225
0.561225
0.561225
0.561225
0.561226
0.561226
0.561226
0.561226
0.561226
0.561226
0.561227
0.561227
0.561227
0.561227
0.561227
0.561227
0.561227
0.561227
0.561228
0.561228
0.561228
0.561228
0.561228
0.561228
0.561229
0.561229
0.561229
0.561229
0.561229
0.561229
0.561229
0.561229
0.56123
0.56123
0.56123
0.56123
0.56123
0.56123
0.561231
0.561231
0.561231
0.561231
0.561231
0.561231
0.561231
0.561232
0.561232
0.561232
0.561232
0.561232
0.561232
0.561232
0.561233
0.561233
0.561233
0.561233
0.561233
0.561233
0.561234
0.561234
0.561234
0.561234
0.561234
0.561234
0.561235
0.561235
0.561235
0.561235
0.561235
0.561236
0.561236
0.561236
0.561236
0.561236
0.561236
0.561237
0.561237
0.561237
0.561237
0.561237
0.561237
0.561237
0.561238
0.561238
0.561238
0.561238
0.561238
0.561238
0.561239
0.561239
0.561239
0.561239
0.561239
0.561239
0.56124
0.56124
0.56124
0.56124
0.56124
0.56124
0.561241
0.561241
0.561241
0.561241
0.561241
0.561242
0.561242
0.561242
0.561242
0.561242
0.561242
0.561242
0.561243
0.561243
0.561243
0.561243
0.561243
0.561243
0.561244
0.561244
0.561244
0.561244
0.561244
0.561244
0.561245
0.561245
0.561245
0.561245
0.561245
0.561245
0.561246
0.561246
0.561246
0.561246
0.561246
0.561246
0.561246
0.561247
0.561247
0.561247
0.561247