<?xml version="1.0"?>
<VTKFile type="UnstructuredGrid" version="0.1" byte_order="LittleEndian">
<UnstructuredGrid>
<Piece NumberOfPoints="5000" NumberOfCells="4000">
<PointData Scalars="Reaction 0">
<DataArray type="Float32" Name="Reaction 0" format="ascii">
0.565866
0.565866
0.565866
0.565866
0.565866
0.565866
0.565866
0.565866
0.565866
0.565866
0.565866
0.565866
0.565866
0.565866
0.565866
0.565866
0.565866
0.565866
0.565866
0.565866
0.565866
0.565866
0.565866
0.565866
0.565866
0.565866
0.565866
0.565866
0.565866
0.565866
0.565866
0.565866
0.565866
0.565866
0.565866
0.565866
0.565866
0.565866
0.565866
0.565866
0.565866
0.565866
0.565866
0.565866
0.565866
0.565866
0.565866
0.565866
0.565866
0.565867
0.565867
0.565867
0.565867
0.565867
0.565867
0.565867
0.565867
0.565867
0.565867
0.565867
0.565867
0.565867
0.565867
0.565867
0.565867
0.565867
0.565867
0.565867
0.565867
0.565867
0.565867
0.565867
0.565867
0.565867
0.565867
0.565867
0.565867
0.565867
0.565867
0.565868
0.565868
0.565868
0.565868
0.565868
0.565868
0.565868
0.565868
0.565868
0.565868
0.565868
0.565868
0.565868
0.565868
0.565868
0.565868
0.565868
0.565868
0.565868
0.565868
0.565868
0.565868
0.565869
0.565869
0.565869
0.565869
0.565869
0.565869
0.565869
0.565869
0.565869
0.565869
0.565869
0.565869
0.565869
0.565869
0.565869
0.565869
0.565869
0.56587
0.56587
0.56587
0.56587
0.56587
0.56587
0.56587
0.56587
0.56587
0.56587
0.56587
0.56587
0.56587
0.56587
0.56587
0.565871
0.565871
0.565871
0.565871
0.565871
0.565871
0.565871
0.565871
0.565871
0.565871
0.565871
0.565871
0.565871
0.565871
0.565872
0.565872
0.565872
0.565872
0.565872
0.565872
0.565872
0.565872
0.565872
0.565872
0.565872
0.565872
0.565873
0.565873
0.565873
0.565873
0.565873
0.565873
0.565873
0.565873
0.565873
0.565873
0.565873
0.565873
0.565874
0.565874
0.565874
0.565874
0.565874
0.565874
0.565874
0.565874
0.565874
0.565874
0.565874
0.565875
0.565875
0.565875
0.565875
0.565875
0.565875
0.565875
0.565875
0.565875
0.565875
0.565876
0.565876
0.565876
0.565876
0.565876
0.565876
0.565876
0.565876
0.565876
0.565876
0.565877
0.565877
0.565877
0.565877
0.565877
0.565877
0.565877
0.565877
0.565877
0.565877
0.565878
0.565878
0.565878
0.565878
0.565878
0.565878
0.565878
0.565878
0.565878
0.565879
0.565879
0.565879
0.565879
0.565879
0.565879
0.565879
0.56588
0.56588
0.56588
0.56588
0.56588
0.56588
0.56588
0.56588
0.56588
0.565881
0.565881
0.565881
0.565881
0.565881
0.565881
0.565881
0.565882
0.565882
0.565882
0.565882
0.565882
0.565882
0.565882
0.565882
0.565882
0.565883
0.565883
0.565883
0.565883
0.565883
0.565883
0.565883
0.565883
0.565884
0.565884
0.565884
0.565884
0.565884
0.565884
0.565885
0.565885
0.565885
0.565885
0.565885
0.565885
0.565885
0.565886
0.565886
0.565886
0.565886
0.565886
0.565886
0.565886
0.565887
0.565887
0.565887
0.565887
0.565887
0.565887
0.565887
0.565888
0.565888
0.565888
0.565888
0.565888
0.565888
0.565889
0.565889
0.565889
0.565889
0.565889
0.565889
0.565889
0.56589
0.56589
0.56589
0.56589
0.56589
0.56589
0.565891
0.565891
0.565891
0.565891
0.565891
0.565891
0.565892
0.565892
0.565892
0.565892
0.565892
0.565892
0.565893
0.565893
0.565893
0.565893
0.565893
0.565893
0.565893
0.565894
0.565894
0.565894
0.565894
0.565894
0.565895
0.565895
0.565895
0.565895
0.565895
0.565895
0.565896
0.565896
0.565896
0.565896
0.565896
0.565897
0.565897
0.565897
0.565897
0.565897
0.565897
0.565898
0.565898
0.565898
0.565898
0.565898
0.565899
0.565899
0.565899
0.565899
0.565899
0.5659
0.5659
0.5659
0.5659
0.5659
0.5659
0.565901
0.565901
0.565901
0.565901
0.565901
0.565902
0.565902
0.565902
0.565902
0.565902
0.565903
0.565903
0.565903
0.565903
0.565903
0.565904
0.565904
0.565904
0.565904
0.565904
0.565905
0.565905
0.565905
0.565905
0.565905
0.565906
0.565906
0.565906
0.565906
0.565906
0.565907
0.565907
0.565907
0.565907
0.565907
0.565908
0.565908
0.565908
0.565908
0.565909
0.565909
0.565909
0.565909
0.565909
0.56591
0.56591
0.56591
0.56591
0.56591
0.565911
0.565911
0.565911
0.565911
0.565912
0.565912
0.565912
0.565912
0.565912
0.565913
0.565913
0.565913
0.565913
0.565913
0.565914
0.565914
0.565914
0.565914
0.565915
0.565915
0.565915
0.565915
0.565915
0.565916
0.565916
0.565916
0.565917
0.565917
0.565917
0.565917
0.565917
0.565918
0.565918
0.565918
0.565918
0.565919
0.565919
0.565919
0.565919
0.56592
0.56592
0.56592
0.56592
0.56592
0.565921
0.565921
0.565921
0.565921
0.565922
0.565922
0.565922
0.565923
0.565923
0.565923
0.565923
0.565924
0.565924
0.565924
0.565924
0.565924
0.565925
0.565925
0.565925
0.565925
0.565926
0.565926
0.565926
0.565926
0.565927
0.565927
0.565927
0.565928
0.565928
0.565928
0.565928
0.565929
0.565929
0.565929
0.565929
0.56593
0.56593
0.56593
0.56593
0.565931
0.565931
0.565931
0.565932
0.565932
0.565932
0.565932
0.565933
0.565933
0.565933
0.565933
0.565934
0.565934
0.565934
0.565934
0.565935
0.565935
0.565935
0.565936
0.565936
0.565936
0.565936
0.565937
0.565937
0.565937
0.565937
0.565938
0.565938
0.565938
0.565938
0.565939
0.565939
0.565939
0.56594
0.56594
0.56594
0.56594
0.565941
0.565941
0.565941
0.565942
0.565942
0.565942
0.565943
0.565943
0.565943
0.565943
0.565944
0.565944
0.565944
0.565944
0.565945
0.565945
0.565945
0.565945
0.565946
0.565946
0.565947
0.565947
0.565947
0.565947
0.565948
0.565948
0.565948
0.565948
0.565949
0.565949
0.56595
0.56595
0.56595
0.56595
0.565951
0.565951
0.565951
0.565951
0.565952
0.565952
0.565953
0.565953
0.565953
0.565953
0.565954
0.565954
0.565955
0.565955
0.565955
0.565955
0.565956
0.565956
0.565956
0.565956
0.565957
0.565957
0.565958
0.565958
0.565958
0.565958
0.565959
0.565959
0.565959
0.56596
0.56596
0.56596
0.565961
0.565961
0.565961
0.565962
0.565962
0.565962
0.565962
0.565963
0.565963
0.565964
0.565964
0.565964
0.565964
0.565965
0.565965
0.565966
0.565966
0.565966
0.565967
0.565967
0.565967
0.565967
0.565968
0.565968
0.565969
0.565969
0.565969
0.565969
0.56597
0.56597
0.565971
0.565971
0.565971
0.565972
0.565972
0.565972
0.565972
0.565973
0.565973
0.565974
0.565974
0.565974
0.565975
0.565975
0.565975
0.565976
0.565976
0.565976
0.565977
0.565977
0.565978
0.565978
0.565978
0.565978
0.565979
0.565979
0.565979
0.56598
0.56598
0.565981
0.565981
0.565981
0.565982
0.565982
0.565982
0.565983
0.565983
0.565983
0.565984
0.565984
0.565985
0.565985
0.565985
0.565986
0.565986
0.565986
0.565986
0.565987
0.565987
0.565988
0.565988
0.565988
0.565989
0.565989
0.56599
0.56599
0.56599
0.565991
0.565991
0.565992
0.565992
0.565992
0.565992
0.565993
0.565993
0.565994
0.565994
0.565994
0.565995
0.565995
0.565996
0.565996
0.565996
0.565997
0.565997
0.565998
0.565998
0.565998
0.565999
0.565999
0.566
0.566
0.566
0.566001
0.566001
0.566001
0.566001
0.566002
0.566002
0.566003
0.566003
0.566003
0.566004
0.566004
0.566005
0.566005
0.566005
0.566006
0.566006
0.566007
0.566007
0.566007
0.566008
0.566008
0.566009
0.566009
0.566009
0.56601
0.56601
0.566011
0.566011
0.566011
0.566012
0.566012
0.566013
0.566013
0.566013
0.566014
0.566014
0.566015
0.566015
0.566015
0.566016
0.566016
0.566017
0.566017
0.566017
0.566018
0.566018
0.566019
0.566019
0.566019
0.56602
0.566021
0.566021
0.566022
0.566022
0.566022
0.566023
0.566023
0.566024
0.566024
0.566024
0.566025
0.566025
0.566026
0.566026
0.566026
0.566027
0.566027
0.566028
0.566028
0.566028
0.566029
0.566029
0.56603
0.56603
0.566031
0.566031
0.566032
0.566032
0.566032
0.566033
0.566033
0.566034
0.566034
0.566034
0.566035
0.566035
0.566036
0.566036
0.566036
0.566037
0.566038
0.566038
0.566039
0.566039
0.566039
0.56604
0.56604
0.566041
0.566041
0.566041
0.566042
0.566043
0.566043
0.566043
0.566044
0.566044
0.566045
0.566045
0.566045
0.566046
0.566046
0.566047
0.566048
0.566048
0.566048
0.566049
0.566049
0.56605
0.56605
0.56605
0.566051
0.566052
0.566052
0.566052
0.566053
0.566053
0.566054
0.566054
0.566054
0.566055
0.566056
0.566056
0.566057
0.566057
0.566057
0.566058
0.566059
0.566059
0.566059
0.56606
0.56606
0.566061
0.566061
0.566061
0.566062
0.566063
0.566063
0.566064
0.566064
0.566064
0.566065
0.566066
0.566066
0.566066
0.566067
0.566067
0.566068
0.566069
0.566069
0.566069
0.56607
0.56607
0.566071
0.566071
0.566072
0.566072
0.566073
0.566073
0.566073
0.566074
0.566075
0.566075
0.566076
0.566076
0.566076
0.566077
0.566078
0.566078
0.566078
0.566079
0.56608
0.56608
0.566081
0.566081
0.566081
0.566082
0.566083
0.566083
0.566083
0.566084
0.566084
0.566085
0.566086
0.566086
0.566086
0.566087
0.566088
0.566088
0.566088
0.566089
0.56609
0.56609
0.566091
0.566091
0.566091
0.566092
0.566093
0.566093
0.566093
0.566094
0.566095
0.566095
0.566096
0.566096
0.566097
0.566097
0.566098
0.566098
0.566098
0.566099
0.5661
0.5661
0.566101
0.566101
0.566102
0.566102
0.566103
0.566104
0.566104
0.566104
0.566105
0.566106
0.566106
0.566106
0.566107
0.566108
0.566108
0.566109
0.566109
0.56611
0.56611
0.566111
0.566112
0.566112
0.566112
0.566113
0.566114
0.566114
0.566114
0.566115
0.566116
0.566116
0.566117
0.566117
0.566118
0.566118
0.566119
0.56612
0.56612
0.56612
0.566121
0.566122
0.566122
0.566122
0.566123
0.566124
0.566124
0.566125
0.566125
0.566126
0.566126
0.566127
0.566128
0.566128
0.566129
0.566129
0.56613
0.566131
0.566131
0.566131
0.566132
0.566133
0.566133
0.566133
0.566134
0.566135
0.566136
0.566136
0.566136
0.566137
0.566138
0.566138
0.566139
0.566139
0.56614
0.56614
0.566141
0.566142
0.566142
0.566143
0.566143
0.566144
0.566145
0.566145
0.566145
0.566146
0.566147
0.566148
0.566148
0.566148
0.566149
0.56615
0.56615
0.56615
0.566151
0.566152
0.566153
0.566153
0.566153
0.566154
0.566155
0.566156
0.566156
0.566156
0.566157
0.566158
0.566158
0.566159
0.566159
0.56616
0.566161
0.566161
0.566162
0.566162
0.566163
0.566164
0.566164
0.566165
0.566165
0.566166
0.566167
0.566167
0.566168
0.566168
0.566169
0.56617
0.56617
0.566171
0.566171
0.566172
0.566173
0.566173
0.566174
0.566174
0.566175
0.566175
0.566176
0.566177
0.566177
0.566178
0.566179
0.566179
0.56618
0.56618
0.566181
0.566182
0.566182
0.566183
0.566183
0.566184
0.566185
0.566186
0.566186
0.566186
0.566187
0.566188
0.566189
0.566189
0.566189
0.56619
0.566191
0.566192
0.566193
0.566193
0.566193
0.566194
0.566195
0.566196
0.566196
0.566196
0.566197
0.566198
0.566199
0.566199
0.5662
0.5662
0.566201
0.566202
0.566202
0.566203
0.566204
0.566204
0.566205
0.566205
0.566206
0.566207
0.566208
0.566208
0.566208
0.566209
0.56621
0.566211
0.566212
0.566212
0.566212
0.566213
0.566214
0.566215
0.566215
0.566216
0.566216
0.566217
0.566218
0.566218
0.566219
0.56622
0.566221
0.566221
0.566221
0.566222
0.566223
0.566224
0.566225
0.566225
0.566225
0.566226
0.566227
0.566228
0.566228
0.566229
0.56623
0.56623
0.566231
0.566231
0.566232
0.566233
0.566234
0.566235
0.566235
0.566235
0.566236
0.566237
0.566238
0.566238
0.566239
0.56624
0.566241
0.566241
0.566241
0.566242
0.566243
0.566244
0.566245
0.566245
0.566246
0.566246
0.566247
0.566248
0.566248
0.566249
0.56625
0.566251
0.566252
0.566252
0.566252
0.566253
0.566254
0.566255
0.566255
0.566256
0.566257
0.566258
0.566259
0.566259
0.566259
0.56626
0.566261
0.566262
0.566262
0.566263
0.566264
0.566265
0.566265
0.566265
0.566266
0.566267
0.566268
0.566269
0.566269
0.56627
0.566271
0.566272
0.566273
0.566273
0.566273
0.566274
0.566275
0.566276
0.566276
0.566277
0.566278
0.566279
0.56628
0.56628
0.566281
0.566281
0.566282
0.566283
0.566283
0.566284
0.566285
0.566286
0.566287
0.566287
0.566288
0.566289
0.56629
0.56629
0.56629
0.566291
0.566292
0.566293
0.566294
0.566294
0.566295
0.566296
0.566297
0.566298
0.566298
0.566299
0.5663
0.566301
0.566301
0.566301
0.566302
0.566303
0.566304
0.566305
0.566305
0.566306
0.566307
0.566308
0.566309
0.566309
0.56631
0.566311
0.566312
0.566313
0.566313
0.566314
0.566314
0.566315
0.566316
0.566316
0.566317
0.566318
0.566319
0.56632
0.56632
0.566321
0.566322
0.566323
0.566324
0.566324
0.566325
0.566326
0.566327
0.566328
0.566328
0.566329
0.56633
0.566331
0.566332
0.566332
0.566332
0.566333
0.566334
0.566335
0.566335
0.566336
0.566337
0.566338
0.566339
0.566339
0.56634
0.566341
0.566342
0.566343
0.566343
0.566344
0.566345
0.566346
0.566347
0.566347
0.566348
0.566349
0.56635
0.566351
0.566351
0.566352
0.566353
0.566354
0.566355
0.566355
0.566356
0.566357
0.566358
0.566359
0.566359
0.56636
0.566361
0.566362
0.566363
0.566363
0.566364
0.566365
0.566366
0.566367
0.566367
0.566368
0.566369
0.56637
0.566371
0.566371
0.566372
0.566373
0.566374
0.566375
0.566375
0.566376
0.566377
0.566378
0.566379
0.566379
0.56638
0.566381
0.566382
0.566383
0.566383
0.566384
0.566385
0.566386
0.566387
0.566387
0.566388
0.566389
0.56639
0.566391
0.566391
0.566392
0.566393
0.566394
0.566395
0.566395
0.566396
0.566397
0.566398
0.5664
0.5664
0.566401
0.566402
0.566403
0.566404
0.566404
0.566405
0.566406
0.566407
0.566408
0.566408
0.566409
0.56641
0.566411
0.566412
0.566412
0.566413
0.566414
0.566415
0.566416
0.566416
0.566417
0.566418
0.56642
0.566421
0.566421
0.566422
0.566423
0.566424
0.566425
0.566425
0.566426
0.566427
0.566428
0.566429
0.566429
0.56643
0.566431
0.566432
0.566433
0.566433
0.566435
0.566436
0.566437
0.566438
0.566438
0.566439
0.56644
0.566441
0.566442
0.566442
0.566443
0.566444
0.566445
0.566447
0.566447
0.566448
0.566449
0.56645
0.566451
0.566451
0.566452
0.566453
0.566454
0.566455
0.566455
0.566456
0.566458
0.566459
0.56646
0.56646
0.566461
0.566462
0.566463
0.566464
0.566464
0.566465
0.566466
0.566468
0.566469
0.566469
0.56647
0.566471
0.566472
0.566473
0.566473
0.566474
0.566475
0.566476
0.566477
0.566477
0.566479
0.56648
0.566481
0.566482
0.566482
0.566483
0.566484
0.566486
0.566487
0.566487
0.566488
0.566489
0.56649
0.566491
0.566491
0.566492
0.566494
0.566495
0.566496
0.566496
0.566497
0.566498
0.566499
0.566501
0.566501
0.566502
0.566503
0.566504
0.566505
0.566505
0.566506
0.566508
0.566509
0.56651
0.56651
0.566511
0.566512
0.566513
0.566515
0.566515
0.566516
0.566517
0.566518
0.566519
0.566519
0.56652
0.566522
0.566523
0.566524
0.566524
0.566525
0.566526
0.566528
0.566529
0.566529
0.56653
0.566531
0.566532
0.566533
0.566533
0.566535
0.566536
0.566537
0.566538
0.566538
0.566539
0.566541
0.566542
0.566543
0.566543
0.566544
0.566546
0.566547
0.566548
0.566548
0.566549
0.56655
0.566552
0.566553
0.566553
0.566554
0.566555
0.566556
0.566558
0.566558
0.566559
0.56656
0.566561
0.566563
0.566563
0.566564
0.566565
0.566566
0.566567
0.566567
0.566569
0.56657
0.566571
0.566572
0.566572
0.566574
0.566575
0.566576
0.566577
0.566577
0.566579
0.56658
0.566581
0.566582
0.566582
0.566584
0.566585
0.566586
0.566587
0.566587
0.566589
0.56659
0.566591
0.566592
0.566592
0.566594
0.566595
0.566596
0.566597
0.566597
0.566599
0.5666
0.566601
0.566603
0.566603
0.566604
0.566605
0.566606
0.566608
0.566608
0.566609
0.56661
0.566611
0.566613
0.566613
0.566614
0.566615
0.566617
0.566618
0.566618
0.566619
0.56662
0.566622
0.566623
0.566623
0.566624
0.566626
0.566627
0.566628
0.566628
0.566629
0.566631
0.566632
0.566633
0.566633
0.566635
0.566636
0.566637
0.566638
0.566638
0.56664
0.566641
0.566642
0.566644
0.566644
0.566645
0.566646
0.566648
0.566649
0.566649
0.566651
0.566652
0.566653
0.566655
0.566655
0.566656
0.566657
0.566659
0.56666
0.56666
0.566661
0.566663
0.566664
0.566665
0.566665
0.566667
0.566668
0.566669
0.566671
0.566671
0.566672
0.566673
0.566675
0.566676
0.566676
0.566677
0.566679
0.56668
0.566681
0.566681
0.566683
0.566684
0.566685
0.566687
0.566687
0.566688
0.56669
0.566691
0.566692
0.566692
0.566694
0.566695
0.566696
0.566698
0.566698
0.566699
0.566701
0.566702
0.566703
0.566703
0.566705
0.566706
0.566707
0.566709
0.566709
0.56671
0.566712
0.566713
0.566714
0.566714
0.566716
0.566717
0.566719
0.56672
0.56672
0.566721
0.566723
0.566724
0.566726
0.566726
0.566727
0.566728
0.56673
0.566731
0.566731
0.566733
0.566734
0.566735
0.566737
0.566737
0.566738
0.56674
0.566741
0.566743
0.566743
0.566744
0.566745
0.566747
0.566748
0.566748
0.56675
0.566751
0.566753
0.566754
0.566754
0.566755
0.566757
0.566758
0.56676
0.56676
0.566761
0.566763
0.566764
0.566766
0.566766
0.566767
0.566768
0.56677
0.566771
0.566771
0.566773
0.566774
0.566776
0.566777
0.566777
0.566779
0.56678
0.566782
0.566783
0.566783
0.566785
0.566786
0.566787
0.566789
0.566789
0.56679
0.566792
0.566793
0.566795
0.566795
0.566796
0.566798
0.566799
0.566801
0.566801
0.566802
0.566804
0.566805
0.566807
0.566807
0.566808
0.56681
0.566811
0.566813
0.566813
0.566814
0.566816
0.566817
0.566819
0.566819
0.56682
0.566822
0.566823
0.566825
0.566825
0.566826
0.566828
0.566829
0.566831
0.566831
0.566832
0.566834
0.566835
0.566837
0.566837
0.566838
0.56684
0.566842
0.566843
0.566843
0.566845
0.566846
0.566848
0.566849
0.566849
0.566851
0.566852
0.566854
0.566855
0.566855
0.566857
0.566858
0.56686
0.566862
0.566862
0.566863
0.566865
0.566866
0.566868
0.566868
0.566869
0.566871
0.566872
0.566874
0.566874
0.566876
0.566877
0.566879
0.56688
0.56688
0.566882
0.566883
0.566885
0.566887
0.566887
0.566888
0.56689
0.566891
0.566893
0.566893
0.566894
0.566896
0.566898
0.566899
0.566899
0.566901
0.566902
0.566904
0.566906
0.566906
0.566907
0.566909
0.56691
0.566912
0.566912
0.566914
0.566915
0.566917
0.566918
0.566918
0.56692
0.566922
0.566923
0.566925
0.566925
0.566927
0.566928
0.56693
0.566931
0.566931
0.566933
0.566935
0.566936
0.566938
0.566938
0.56694
0.566941
0.566943
0.566944
0.566944
0.566946
0.566948
0.566949
0.566951
0.566951
0.566953
0.566954
0.566956
0.566958
0.566958
0.566959
0.566961
0.566963
0.566964
0.566964
0.566966
0.566968
0.566969
0.566971
0.566971
0.566973
0.566974
0.566976
0.566977
0.566977
0.566979
0.566981
0.566982
0.566984
0.566984
0.566986
0.566987
0.566989
0.566991
0.566991
0.566993
0.566994
0.566996
0.566998
0.566998
0.566999
0.567001
0.567003
0.567005
0.567005
0.567006
0.567008
0.56701
0.567011
0.567011
0.567013
0.567015
0.567017
0.567018
0.567018
0.56702
0.567022
0.567023
0.567025
0.567025
0.567027
0.567029
0.56703
0.567032
0.567032
0.567034
0.567036
0.567037
0.567039
0.567039
0.567041
0.567042
0.567044
0.567046
0.567046
0.567048
0.567049
0.567051
0.567053
0.567053
0.567055
0.567056
0.567058
0.56706
0.56706
0.567062
0.567063
0.567065
0.567067
0.567067
0.567069
0.567071
0.567072
0.567074
0.567074
0.567076
0.567078
0.567079
0.567081
0.567081
0.567083
0.567085
0.567087
0.567088
0.567088
0.56709
0.567092
0.567094
0.567096
0.567096
0.567097
0.567099
0.567101
0.567103
0.567103
0.567105
0.567106
0.567108
0.56711
0.56711
0.567112
0.567114
0.567115
0.567117
0.567117
0.567119
0.567121
0.567123
0.567125
0.567125
0.567126
0.567128
0.56713
0.567132
0.567132
0.567134
0.567136
0.567137
0.567139
0.567139
0.567141
0.567143
0.567145
0.567147
0.567147
0.567148
0.56715
0.567152
0.567154
0.567154
0.567156
0.567158
0.56716
0.567161
0.567161
0.567163
0.567165
0.567167
0.567169
0.567169
0.567171
0.567172
0.567174
0.567176
0.567176
0.567178
0.56718
0.567182
0.567184
0.567184
0.567186
0.567188
0.56719
0.567191
0.567191
0.567193
0.567195
0.567197
0.567199
0.567199
0.567201
0.567203
0.567205
0.567207
0.567207
0.567209
0.567211
0.567213
0.567214
0.567214
0.567216
0.567218
0.56722
0.567222
0.567222
0.567224
0.567226
0.567228
0.56723
0.56723
0.567232
0.567234
0.567236
0.567238
0.567238
0.56724
0.567242
0.567243
0.567245
0.567245
0.567247
0.567249
0.567251
0.567253
0.567253
0.567255
0.567257
0.567259
0.567261
0.567261
0.567263
0.567265
0.567267
0.567269
0.567269
0.567271
0.567273
0.567275
0.567277
0.567277
0.567279
0.567281
0.567283
0.567285
0.567285
0.567287
0.567289
0.567291
0.567293
0.567293
0.567295
0.567297
0.567299
0.567301
0.567301
0.567303
0.567305
0.567307
0.567309
0.567309
0.567311
0.567313
0.567315
0.567317
0.567317
0.567319
0.567321
0.567323
0.567325
0.567325
0.567327
0.567329
0.567331
0.567333
0.567333
0.567335
0.567337
0.567339
0.567342
0.567342
0.567344
0.567346
0.567348
0.56735
0.56735
0.567352
0.567354
0.567356
0.567358
0.567358
0.56736
0.567362
0.567364
0.567366
0.567366
0.567368
0.56737
0.567372
0.567374
0.567374
0.567377
0.567379
0.567381
0.567383
0.567383
0.567385
0.567387
0.567389
0.567391
0.567391
0.567394
0.567396
0.567398
0.5674
0.5674
0.567402
0.567404
0.567406
0.567408
0.567408
0.56741
0.567413
0.567415
0.567417
0.567417
0.567419
0.567421
0.567423
0.567425
0.567425
0.567428
0.56743
0.567432
0.567434
0.567434
0.567436
0.567438
0.56744
0.567443
0.567443
0.567445
0.567447
0.567449
0.567451
0.567451
0.567453
0.567456
0.567458
0.56746
0.56746
0.567462
0.567464
0.567466
0.567469
0.567469
0.567471
0.567473
0.567475
0.567477
0.567477
0.56748
0.567482
0.567484
0.567486
0.567486
0.567488
0.567491
0.567493
0.567495
0.567495
0.567497
0.567499
0.567502
0.567504
0.567504
0.567506
0.567508
0.567511
0.567513
0.567513
0.567515
0.567517
0.567519
0.567522
0.567522
0.567524
0.567526
0.567528
0.567531
0.567531
0.567533
0.567535
0.567537
0.56754
0.56754
0.567542
0.567544
0.567546
0.567549
0.567549
0.567551
0.567553
0.567556
0.567558
0.567558
0.56756
0.567562
0.567565
0.567567
0.567567
0.567569
0.567571
0.567574
0.567576
0.567576
0.567578
0.567581
0.567583
0.567585
0.567585
0.567588
0.56759
0.567592
0.567595
0.567595
0.567597
0.567599
0.567602
0.567604
0.567604
0.567606
0.567609
0.567611
0.567613
0.567613
0.567616
0.567618
0.56762
0.567623
0.567623
0.567625
0.567627
0.56763
0.567632
0.567632
0.567634
0.567637
0.567639
0.567641
0.567641
0.567644
0.567646
0.567649
0.567651
0.567651
0.567653
0.567656
0.567658
0.56766
0.56766
0.567663
0.567665
0.567668
0.56767
0.56767
0.567672
0.567675
0.567677
0.56768
0.56768
0.567682
0.567684
0.567687
0.567689
0.567689
0.567692
0.567694
0.567696
0.567699
0.567699
0.567701
0.567704
0.567706
0.567709
0.567709
0.567711
0.567713
0.567716
0.567718
0.567718
0.567721
0.567723
0.567726
0.567728
0.567728
0.567731
0.567733
0.567736
0.567738
0.567738
0.56774
0.567743
0.567745
0.567748
0.567748
0.56775
0.567753
0.567755
0.567758
0.567758
0.56776
0.567763
0.567765
0.567768
0.567768
0.56777
0.567773
0.567775
0.567778
0.567778
0.56778
0.567783
0.567785
0.567788
0.567788
0.56779
0.567793
0.567795
0.567798
0.567798
0.5678
0.567803
0.567805
0.567808
0.567808
0.56781
0.567813
0.567816
0.567818
0.567818
0.567821
0.567823
0.567826
0.567828
0.567828
0.567831
0.567834
0.567836
0.567839
0.567839
0.567841
0.567844
0.567846
0.567849
0.567849
0.567852
0.567854
0.567857
0.567859
0.567859
0.567862
0.567865
0.567867
0.56787
0.56787
0.567872
0.567875
0.567878
0.56788
0.56788
0.567883
0.567885
0.567888
0.567891
0.567891
0.567893
0.567896
0.567899
0.567901
0.567901
0.567904
0.567906
0.567909
0.567912
0.567912
0.567914
0.567917
0.56792
0.567922
0.567922
0.567925
0.567928
0.56793
0.567933
0.567933
0.567936
0.567938
0.567941
0.567944
0.567944
0.567946
0.567949
0.567952
0.567954
0.567954
0.567957
0.56796
0.567963
0.567965
0.567965
0.567968
0.567971
0.567973
0.567976
0.567976
0.567979
0.567981
0.567984
0.567987
0.567987
0.56799
0.567992
0.567995
0.567998
0.567998
0.568
0.568003
0.568006
0.568009
0.568009
0.568011
0.568014
0.568017
0.56802
0.56802
0.568022
0.568025
0.568028
0.568031
0.568031
0.568034
0.568036
0.568039
0.568042
0.568042
0.568045
0.568048
0.56805
0.568053
0.568053
0.568056
0.568059
0.568062
0.568064
0.568064
0.568067
0.56807
0.568073
0.568076
0.568076
0.568078
0.568081
0.568084
0.568087
0.568087
0.56809
0.568093
0.568095
0.568098
0.568098
0.568101
0.568104
0.568107
0.56811
0.56811
0.568113
0.568115
0.568118
0.568121
0.568121
0.568124
0.568127
0.56813
0.568133
0.568133
0.568136
0.568138
0.568141
0.568144
0.568144
0.568147
0.56815
0.568153
0.568156
0.568156
0.568159
0.568162
0.568165
0.568167
0.568167
0.56817
0.568173
0.568176
0.568179
0.568179
0.568182
0.568185
0.568188
0.568191
0.568191
0.568194
0.568197
0.5682
0.568203
0.568203
0.568206
0.568209
0.568212
0.568214
0.568214
0.568217
0.56822
0.568223
0.568226
0.568226
0.568229
0.568232
0.568235
0.568238
0.568238
0.568241
0.568244
0.568247
0.56825
0.56825
0.568253
0.568256
0.568259
0.568262
0.568262
0.568265
0.568268
0.568271
0.568274
0.568274
0.568277
0.56828
0.568284
0.568287
0.568287
0.56829
0.568293
0.568296
0.568299
0.568299
0.568302
0.568305
0.568308
0.568311
0.568311
0.568314
0.568317
0.56832
0.568323
0.568323
0.568326
0.56833
0.568333
0.568336
0.568336
0.568339
0.568342
0.568345
0.568348
0.568348
0.568351
0.568354
0.568358
0.568361
0.568361
0.568364
0.568367
0.56837
0.568373
0.568373
0.568376
0.568379
0.568383
0.568386
0.568386
0.568389
0.568392
0.568395
0.568398
0.568398
0.568402
0.568405
0.568408
0.568411
0.568411
0.568414
0.568417
0.568421
0.568424
0.568424
0.568427
0.56843
0.568433
0.568437
0.568437
0.56844
0.568443
0.568446
0.568449
0.568449
0.568453
0.568456
0.568459
0.568462
0.568462
0.568466
0.568469
0.568472
0.568475
0.568475
0.568478
0.568482
0.568485
0.568488
0.568488
0.568491
0.568495
0.568498
0.568501
0.568501
0.568504
0.568508
0.568511
0.568514
0.568514
0.568518
0.568521
0.568524
0.568528
0.568528
0.568531
0.568534
0.568538
0.568541
0.568541
0.568544
0.568548
0.568551
0.568554
0.568554
0.568558
0.568561
0.568564
0.568568
0.568568
0.568571
0.568574
0.568578
0.568581
0.568581
0.568584
0.568588
0.568591
0.568594
0.568594
0.568598
0.568601
0.568605
0.568608
0.568608
0.568611
0.568615
0.568618
0.568622
0.568622
0.568625
0.568628
0.568632
0.568635
0.568635
0.568639
0.568642
0.568645
0.568649
0.568649
0.568652
0.568656
0.568659
0.568663
0.568663
0.568666
0.56867
0.568673
0.568677
0.568677
0.56868
0.568683
0.568687
0.56869
0.56869
0.568694
0.568697
0.568701
0.568704
0.568704
0.568708
0.568711
0.568715
0.568718
0.568718
0.568722
0.568725
0.568729
0.568732
0.568732
0.568736
0.568739
0.568743
0.568746
0.568746
0.56875
0.568753
0.568757
0.56876
0.56876
0.568764
0.568768
0.568771
0.568775
0.568775
0.568778
0.568782
0.568786
0.568789
0.568789
0.568793
0.568796
0.5688
0.568804
0.568804
0.568807
0.568811
0.568815
0.568818
0.568818
0.568822
0.568825
0.568829
0.568833
0.568833
0.568836
0.56884
0.568844
0.568847
0.568847
0.568851
0.568855
0.568858
0.568862
0.568862
0.568866
0.568869
0.568873
0.568877
0.568877
0.56888
0.568884
0.568888
0.568891
0.568891
0.568895
0.568899
0.568902
0.568906
0.568906
0.56891
0.568914
0.568917
0.568921
0.568921
0.568925
0.568929
0.568932
0.568936
0.568936
0.56894
0.568944
0.568947
0.568951
0.568951
0.568955
0.568959
0.568962
0.568966
0.568966
0.56897
0.568974
0.568977
0.568981
0.568981
0.568985
0.568989
0.568993
0.568996
0.568996
0.569
0.569004
0.569008
0.569012
0.569012
0.569015
0.569019
0.569023
0.569027
0.569027
0.569031
0.569035
0.569038
0.569042
0.569042
0.569046
0.56905
0.569054
0.569058
0.569058
0.569062
0.569066
0.56907
0.569074
0.569074
0.569077
0.569081
0.569085
0.569089
0.569089
0.569093
0.569097
0.569101
0.569105
0.569105
0.569109
0.569113
0.569117
0.569121
0.569121
0.569125
0.569129
0.569133
0.569137
0.569137
0.569141
0.569145
0.569149
0.569153
0.569153
0.569157
0.569161
0.569165
0.569169
0.569169
0.569173
0.569177
0.569181
0.569185
0.569185
0.569189
0.569193
0.569197
0.569201
0.569201
0.569205
0.569209
0.569213
0.569217
0.569217
0.569221
0.569225
0.569229
0.569233
0.569233
0.569237
0.569241
0.569245
0.56925
0.56925
0.569254
0.569258
0.569262
0.569266
0.569266
0.56927
0.569274
0.569278
0.569282
0.569282
0.569287
0.569291
0.569295
0.569299
0.569299
0.569303
0.569307
0.569311
0.569315
0.569315
0.56932
0.569324
0.569328
0.569332
0.569332
0.569336
0.569341
0.569345
0.569349
0.569349
0.569353
0.569358
0.569362
0.569366
0.569366
0.56937
0.569375
0.569379
0.569383
0.569383
0.569387
0.569392
0.569396
0.5694
0.5694
0.569404
0.569409
0.569413
0.569417
0.569417
0.569421
0.569426
0.56943
0.569434
0.569434
0.569439
0.569443
0.569447
0.569452
0.569452
0.569456
0.56946
0.569465
0.569469
0.569469
0.569473
0.569478
0.569482
0.569486
0.569486
0.569491
0.569495
0.5695
0.569504
0.569504
0.569508
0.569513
0.569517
0.569521
0.569521
0.569526
0.56953
0.569535
0.569539
0.569539
0.569544
0.569548
0.569552
0.569557
0.569557
0.569561
0.569566
0.56957
0.569575
0.569575
0.569579
0.569584
0.569588
0.569593
0.569593
0.569597
0.569601
0.569606
0.56961
0.56961
0.569615
0.569619
0.569624
0.569628
0.569628
0.569633
0.569637
0.569642
0.569646
0.569646
0.569651
0.569656
0.56966
0.569665
0.569665
0.569669
0.569674
0.569679
0.569683
0.569683
0.569688
0.569692
0.569697
0.569702
0.569702
0.569706
0.569711
0.569716
0.56972
0.56972
0.569725
0.569729
0.569734
0.569739
0.569739
0.569743
0.569748
0.569753
0.569757
0.569757
0.569762
0.569767
0.569771
0.569776
0.569776
0.569781
0.569786
0.56979
0.569795
0.569795
0.5698
0.569804
0.569809
0.569814
0.569814
0.569819
0.569823
0.569828
0.569833
0.569833
0.569838
0.569842
0.569847
0.569852
0.569852
0.569857
0.569862
0.569866
0.569871
0.569871
0.569876
0.569881
0.569886
0.56989
0.56989
0.569895
0.5699
0.569905
0.56991
0.56991
0.569915
0.569919
0.569924
0.569929
0.569929
0.569934
0.569939
0.569944
0.569948
0.569948
0.569953
0.569958
0.569963
0.569968
0.569968
0.569973
0.569978
0.569983
0.569988
0.569988
0.569993
0.569998
0.570003
0.570008
0.570008
0.570013
0.570018
0.570023
0.570028
0.570028
0.570033
0.570038
0.570043
0.570048
0.570048
0.570053
0.570058
0.570063
0.570068
0.570068
0.570073
0.570078
0.570083
0.570088
0.570088
0.570093
0.570098
0.570103
0.570108
0.570108
0.570114
0.570119
0.570124
0.570129
0.570129
0.570134
0.570139
0.570144
0.570149
0.570149
0.570154
0.57016
0.570165
0.57017
0.57017
0.570175
0.57018
0.570185
0.570191
0.570191
0.570196
0.570201
0.570206
0.570211
0.570211
0.570216
0.570222
0.570227
0.570232
0.570232
0.570237
0.570242
0.570248
0.570253
0.570253
0.570258
0.570263
0.570269
0.570274
0.570274
0.570279
0.570284
0.57029
0.570295
0.570295
0.5703
0.570306
0.570311
0.570316
0.570316
0.570322
0.570327
0.570332
0.570338
0.570338
0.570343
0.570349
0.570354
0.570359
0.570359
0.570365
0.57037
0.570376
0.570381
0.570381
0.570386
0.570392
0.570397
0.570403
0.570403
0.570408
0.570414
0.570419
0.570424
0.570424
0.57043
0.570435
0.570441
0.570446
0.570446
0.570452
0.570457
0.570463
0.570468
0.570468
0.570474
0.570479
0.570485
0.57049
0.57049
0.570496
0.570501
0.570507
0.570513
0.570513
0.570518
0.570524
0.570529
0.570535
0.570535
0.57054
0.570546
0.570552
0.570557
0.570557
0.570563
0.570568
0.570574
0.57058
0.57058
0.570585
0.570591
0.570597
0.570602
0.570602
0.570608
0.570613
0.570619
0.570625
0.570625
0.57063
0.570636
0.570642
0.570647
0.570647
0.570653
0.570659
0.570665
0.570671
0.570671
0.570676
0.570682