<?xml version="1.0"?>
<VTKFile type="UnstructuredGrid" version="0.1" byte_order="LittleEndian">
<UnstructuredGrid>
<Piece NumberOfPoints="5000" NumberOfCells="4000">
<PointData Scalars="Reaction 0">
<DataArray type="Float32" Name="Reaction 0" format="ascii">
0.304897
0.304897
0.304897
0.304897
0.304897
0.304897
0.304897
0.304897
0.304898
0.304898
0.304898
0.304898
0.304898
0.304899
0.304899
0.304899
0.3049
0.3049
0.3049
0.304901
0.304901
0.304901
0.304902
0.304903
0.304903
0.304903
0.304904
0.304905
0.304905
0.304906
0.304906
0.304907
0.304908
0.304908
0.304909
0.304909
0.30491
0.304911
0.304912
0.304913
0.304913
0.304914
0.304915
0.304916
0.304918
0.304918
0.304919
0.30492
0.304921
0.304922
0.304922
0.304924
0.304925
0.304926
0.304928
0.304928
0.304929
0.304931
0.304932
0.304934
0.304934
0.304935
0.304937
0.304938
0.30494
0.30494
0.304942
0.304943
0.304945
0.304947
0.304947
0.304949
0.30495
0.304952
0.304954
0.304954
0.304956
0.304958
0.30496
0.304962
0.304962
0.304964
0.304966
0.304968
0.304971
0.304971
0.304973
0.304975
0.304977
0.30498
0.30498
0.304982
0.304984
0.304987
0.304989
0.304989
0.304991
0.304994
0.304996
0.304999
0.304999
0.305001
0.305004
0.305007
0.305009
0.305009
0.305012
0.305015
0.305018
0.30502
0.30502
0.305023
0.305026
0.305029
0.305032
0.305032
0.305035
0.305038
0.305041
0.305044
0.305044
0.305047
0.30505
0.305053
0.305056
0.305056
0.30506
0.305063
0.305066
0.305069
0.305069
0.305073
0.305076
0.305079
0.305083
0.305083
0.305086
0.30509
0.305093
0.305097
0.305097
0.3051
0.305104
0.305108
0.305111
0.305111
0.305115
0.305119
0.305123
0.305126
0.305126
0.30513
0.305134
0.305138
0.305142
0.305142
0.305146
0.30515
0.305154
0.305158
0.305158
0.305162
0.305166
0.305171
0.305175
0.305175
0.305179
0.305183
0.305187
0.305192
0.305192
0.305196
0.305201
0.305205
0.305209
0.305209
0.305214
0.305218
0.305223
0.305228
0.305228
0.305232
0.305237
0.305241
0.305246
0.305246
0.305251
0.305256
0.30526
0.305265
0.305265
0.30527
0.305275
0.30528
0.305285
0.305285
0.30529
0.305295
0.3053
0.305305
0.305305
0.30531
0.305315
0.305321
0.305326
0.305326
0.305331
0.305336
0.305342
0.305347
0.305347
0.305352
0.305358
0.305363
0.305369
0.305369
0.305374
0.30538
0.305385
0.305391
0.305391
0.305396
0.305402
0.305408
0.305413
0.305413
0.305419
0.305425
0.305431
0.305437
0.305437
0.305443
0.305449
0.305454
0.30546
0.30546
0.305466
0.305472
0.305479
0.305485
0.305485
0.305491
0.305497
0.305503
0.305509
0.305509
0.305516
0.305522
0.305528
0.305535
0.305535
0.305541
0.305547
0.305554
0.30556
0.30556
0.305567
0.305573
0.30558
0.305587
0.305587
0.305593
0.3056
0.305607
0.305613
0.305613
0.30562
0.305627
0.305634
0.305641
0.305641
0.305648
0.305655
0.305662
0.305669
0.305669
0.305676
0.305683
0.30569
0.305697
0.305697
0.305704
0.305711
0.305718
0.305726
0.305726
0.305733
0.30574
0.305748
0.305755
0.305755
0.305762
0.30577
0.305777
0.305785
0.305785
0.305792
0.3058
0.305808
0.305815
0.305815
0.305823
0.305831
0.305838
0.305846
0.305846
0.305854
0.305862
0.30587
0.305877
0.305877
0.305885
0.305893
0.305901
0.305909
0.305909
0.305917
0.305925
0.305934
0.305942
0.305942
0.30595
0.305958
0.305966
0.305975
0.305975
0.305983
0.305991
0.306
0.306008
0.306008
0.306016
0.306025
0.306033
0.306042
0.306042
0.306051
0.306059
0.306068
0.306076
0.306076
0.306085
0.306094
0.306103
0.306111
0.306111
0.30612
0.306129
0.306138
0.306147
0.306147
0.306156
0.306165
0.306174
0.306183
0.306183
0.306192
0.306201
0.30621
0.306219
0.306219
0.306228
0.306238
0.306247
0.306256
0.306256
0.306266
0.306275
0.306284
0.306294
0.306294
0.306303
0.306313
0.306322
0.306332
0.306332
0.306341
0.306351
0.306361
0.30637
0.30637
0.30638
0.30639
0.306399
0.306409
0.306409
0.306419
0.306429
0.306439
0.306449
0.306449
0.306459
0.306469
0.306479
0.306489
0.306489
0.306499
0.306509
0.306519
0.306529
0.306529
0.30654
0.30655
0.30656
0.30657
0.30657
0.306581
0.306591
0.306601
0.306612
0.306612
0.306622
0.306633
0.306643
0.306654
0.306654
0.306665
0.306675
0.306686
0.306697
0.306697
0.306707
0.306718
0.306729
0.30674
0.30674
0.306751
0.306761
0.306772
0.306783
0.306783
0.306794
0.306805
0.306816
0.306827
0.306827
0.306838
0.30685
0.306861
0.306872
0.306872
0.306883
0.306894
0.306906
0.306917
0.306917
0.306928
0.30694
0.306951
0.306963
0.306963
0.306974
0.306986
0.306997
0.307009
0.307009
0.30702
0.307032
0.307044
0.307056
0.307056
0.307067
0.307079
0.307091
0.307103
0.307103
0.307115
0.307126
0.307138
0.30715
0.30715
0.307162
0.307174
0.307186
0.307199
0.307199
0.307211
0.307223
0.307235
0.307247
0.307247
0.307259
0.307272
0.307284
0.307296
0.307296
0.307309
0.307321
0.307334
0.307346
0.307346
0.307359
0.307371
0.307384
0.307396
0.307396
0.307409
0.307422
0.307434
0.307447
0.307447
0.30746
0.307473
0.307485
0.307498
0.307498
0.307511
0.307524
0.307537
0.30755
0.30755
0.307563
0.307576
0.307589
0.307602
0.307602
0.307615
0.307629
0.307642
0.307655
0.307655
0.307668
0.307682
0.307695
0.307708
0.307708
0.307722
0.307735
0.307749
0.307762
0.307762
0.307776
0.307789
0.307803
0.307816
0.307816
0.30783
0.307844
0.307857
0.307871
0.307871
0.307885
0.307899
0.307913
0.307926
0.307926
0.30794
0.307954
0.307968
0.307982
0.307982
0.307996
0.30801
0.308024
0.308039
0.308039
0.308053
0.308067
0.308081
0.308095
0.308095
0.30811
0.308124
0.308138
0.308153
0.308153
0.308167
0.308182
0.308196
0.308211
0.308211
0.308225
0.30824
0.308254
0.308269
0.308269
0.308284
0.308298
0.308313
0.308328
0.308328
0.308343
0.308357
0.308372
0.308387
0.308387
0.308402
0.308417
0.308432
0.308447
0.308447
0.308462
0.308477
0.308492
0.308507
0.308507
0.308523
0.308538
0.308553
0.308568
0.308568
0.308584
0.308599
0.308614
0.30863
0.30863
0.308645
0.308661
0.308676
0.308692
0.308692
0.308707
0.308723
0.308738
0.308754
0.308754
0.30877
0.308785
0.308801
0.308817
0.308817
0.308833
0.308849
0.308864
0.30888
0.30888
0.308896
0.308912
0.308928
0.308944
0.308944
0.30896
0.308976
0.308993
0.309009
0.309009
0.309025
0.309041
0.309057
0.309074
0.309074
0.30909
0.309106
0.309123
0.309139
0.309139
0.309156
0.309172
0.309189
0.309205
0.309205
0.309222
0.309238
0.309255
0.309272
0.309272
0.309288
0.309305
0.309322
0.309339
0.309339
0.309355
0.309372
0.309389
0.309406
0.309406
0.309423
0.30944
0.309457
0.309474
0.309474
0.309491
0.309508
0.309525
0.309543
0.309543
0.30956
0.309577
0.309594
0.309612
0.309612
0.309629
0.309646
0.309664
0.309681
0.309681
0.309699
0.309716
0.309734
0.309751
0.309751
0.309769
0.309786
0.309804
0.309822
0.309822
0.309839
0.309857
0.309875
0.309893
0.309893
0.309911
0.309928
0.309946
0.309964
0.309964
0.309982
0.31
0.310018
0.310036
0.310036
0.310054
0.310073
0.310091
0.310109
0.310109
0.310127
0.310145
0.310164
0.310182
0.310182
0.3102
0.310219
0.310237
0.310256
0.310256
0.310274
0.310292
0.310311
0.31033
0.31033
0.310348
0.310367
0.310385
0.310404
0.310404
0.310423
0.310442
0.31046
0.310479
0.310479
0.310498
0.310517
0.310536
0.310555
0.310555
0.310574
0.310593
0.310612
0.310631
0.310631
0.31065
0.310669
0.310688
0.310708
0.310708
0.310727
0.310746
0.310765
0.310785
0.310785
0.310804
0.310823
0.310843
0.310862
0.310862
0.310882
0.310901
0.310921
0.310941
0.310941
0.31096
0.31098
0.310999
0.311019
0.311019
0.311039
0.311059
0.311078
0.311098
0.311098
0.311118
0.311138
0.311158
0.311178
0.311178
0.311198
0.311218
0.311238
0.311258
0.311258
0.311278
0.311298
0.311319
0.311339
0.311339
0.311359
0.311379
0.3114
0.31142
0.31142
0.31144
0.311461
0.311481
0.311502
0.311502
0.311522
0.311543
0.311563
0.311584
0.311584
0.311604
0.311625
0.311646
0.311667
0.311667
0.311687
0.311708
0.311729
0.31175
0.31175
0.311771
0.311791
0.311812
0.311833
0.311833
0.311854
0.311875
0.311897
0.311918
0.311918
0.311939
0.31196
0.311981
0.312002
0.312002
0.312024
0.312045
0.312066
0.312088
0.312088
0.312109
0.31213
0.312152
0.312173
0.312173
0.312195
0.312216
0.312238
0.31226
0.31226
0.312281
0.312303
0.312325
0.312346
0.312346
0.312368
0.31239
0.312412
0.312433
0.312433
0.312455
0.312477
0.312499
0.312521
0.312521
0.312543
0.312565
0.312587
0.312609
0.312609
0.312632
0.312654
0.312676
0.312698
0.312698
0.312721
0.312743
0.312765
0.312788
0.312788
0.31281
0.312832
0.312855
0.312877
0.312877
0.3129
0.312922
0.312945
0.312968
0.312968
0.31299
0.313013
0.313036
0.313058
0.313058
0.313081
0.313104
0.313127
0.31315
0.31315
0.313173
0.313195
0.313218
0.313241
0.313241
0.313264
0.313287
0.313311
0.313334
0.313334
0.313357
0.31338
0.313403
0.313427
0.313427
0.31345
0.313473
0.313496
0.31352
0.31352
0.313543
0.313567
0.31359
0.313614
0.313614
0.313637
0.313661
0.313684
0.313708
0.313708
0.313732
0.313755
0.313779
0.313803
0.313803
0.313827
0.31385
0.313874
0.313898
0.313898
0.313922
0.313946
0.31397
0.313994
0.313994
0.314018
0.314042
0.314066
0.31409
0.31409
0.314114
0.314139
0.314163
0.314187
0.314187
0.314211
0.314236
0.31426
0.314284
0.314284
0.314309
0.314333
0.314358
0.314382
0.314382
0.314407
0.314431
0.314456
0.314481
0.314481
0.314505
0.31453
0.314555
0.314579
0.314579
0.314604
0.314629
0.314654
0.314679
0.314679
0.314704
0.314729
0.314754
0.314779
0.314779
0.314804
0.314829
0.314854
0.314879
0.314879
0.314904
0.314929
0.314955
0.31498
0.31498
0.315005
0.315031
0.315056
0.315081
0.315081
0.315107
0.315132
0.315158
0.315183
0.315183
0.315209
0.315234
0.31526
0.315286
0.315286
0.315311
0.315337
0.315363
0.315388
0.315388
0.315414
0.31544
0.315466
0.315492
0.315492
0.315518
0.315544
0.31557
0.315596
0.315596
0.315622
0.315648
0.315674
0.3157
0.3157
0.315726
0.315752
0.315779
0.315805
0.315805
0.315831
0.315858
0.315884
0.31591
0.31591
0.315937
0.315963
0.31599
0.316016
0.316016
0.316043
0.316069
0.316096
0.316123
0.316123
0.316149
0.316176
0.316203
0.31623
0.31623
0.316256
0.316283
0.31631
0.316337
0.316337
0.316364
0.316391
0.316418
0.316445
0.316445
0.316472
0.316499
0.316526
0.316553
0.316553
0.316581
0.316608
0.316635
0.316662
0.316662
0.31669
0.316717
0.316744
0.316772
0.316772
0.316799
0.316827
0.316854
0.316882
0.316882
0.316909
0.316937
0.316964
0.316992
0.316992
0.31702
0.317047
0.317075
0.317103
0.317103
0.317131
0.317159
0.317187
0.317214
0.317214
0.317242
0.31727
0.317298
0.317326
0.317326
0.317354
0.317383
0.317411
0.317439
0.317439
0.317467
0.317495
0.317523
0.317552
0.317552
0.31758
0.317608
0.317637
0.317665
0.317665
0.317694
0.317722
0.317751
0.317779
0.317779
0.317808
0.317836
0.317865
0.317894
0.317894
0.317922
0.317951
0.31798
0.318009
0.318009
0.318037
0.318066
0.318095
0.318124
0.318124
0.318153
0.318182
0.318211
0.31824
0.31824
0.318269
0.318298
0.318327
0.318356
0.318356
0.318386
0.318415
0.318444
0.318473
0.318473
0.318503
0.318532
0.318561
0.318591
0.318591
0.31862
0.31865
0.318679
0.318709
0.318709
0.318738
0.318768
0.318798
0.318827
0.318827
0.318857
0.318887
0.318916
0.318946
0.318946
0.318976
0.319006
0.319036
0.319066
0.319066
0.319096
0.319126
0.319156
0.319186
0.319186
0.319216
0.319246
0.319276
0.319306
0.319306
0.319336
0.319366
0.319397
0.319427
0.319427
0.319457
0.319488
0.319518
0.319549
0.319549
0.319579
0.319609
0.31964
0.31967
0.31967
0.319701
0.319732
0.319762
0.319793
0.319793
0.319824
0.319854
0.319885
0.319916
0.319916
0.319947
0.319978
0.320008
0.320039
0.320039
0.32007
0.320101
0.320132
0.320163
0.320163
0.320194
0.320226
0.320257
0.320288
0.320288
0.320319
0.32035
0.320382
0.320413
0.320413
0.320444
0.320475
0.320507
0.320538
0.320538
0.32057
0.320601
0.320633
0.320664
0.320664
0.320696
0.320727
0.320759
0.320791
0.320791
0.320822
0.320854
0.320886
0.320918
0.320918
0.32095
0.320981
0.321013
0.321045
0.321045
0.321077
0.321109
0.321141
0.321173
0.321173
0.321205
0.321237
0.321269
0.321302
0.321302
0.321334
0.321366
0.321398
0.321431
0.321431
0.321463
0.321495
0.321528
0.32156
0.32156
0.321592
0.321625
0.321657
0.32169
0.32169
0.321723
0.321755
0.321788
0.32182
0.32182
0.321853
0.321886
0.321919
0.321951
0.321951
0.321984
0.322017
0.32205
0.322083
0.322083
0.322116
0.322149
0.322182
0.322215
0.322215
0.322248
0.322281
0.322314
0.322347
0.322347
0.322381
0.322414
0.322447
0.32248
0.32248
0.322514
0.322547
0.32258
0.322614
0.322614
0.322647
0.322681
0.322714
0.322748
0.322748
0.322781
0.322815
0.322849
0.322882
0.322882
0.322916
0.32295
0.322983
0.323017
0.323017
0.323051
0.323085
0.323119
0.323153
0.323153
0.323187
0.323221
0.323255
0.323289
0.323289
0.323323
0.323357
0.323391
0.323425
0.323425
0.323459
0.323493
0.323528
0.323562
0.323562
0.323596
0.323631
0.323665
0.323699
0.323699
0.323734
0.323768
0.323803
0.323837
0.323837
0.323872
0.323907
0.323941
0.323976
0.323976
0.324011
0.324045
0.32408
0.324115
0.324115
0.32415
0.324184
0.324219
0.324254
0.324254
0.324289
0.324324
0.324359
0.324394
0.324394
0.324429
0.324464
0.324499
0.324535
0.324535
0.32457
0.324605
0.32464
0.324676
0.324676
0.324711
0.324746
0.324782
0.324817
0.324817
0.324852
0.324888
0.324923
0.324959
0.324959
0.324994
0.32503
0.325066
0.325101
0.325101
0.325137
0.325173
0.325208
0.325244
0.325244
0.32528
0.325316
0.325352
0.325388
0.325388
0.325424
0.32546
0.325496
0.325532
0.325532
0.325568
0.325604
0.32564
0.325676
0.325676
0.325712
0.325748
0.325785
0.325821
0.325821
0.325857
0.325894
0.32593
0.325966
0.325966
0.326003
0.326039
0.326076
0.326112
0.326112
0.326149
0.326185
0.326222
0.326259
0.326259
0.326295
0.326332
0.326369
0.326406
0.326406
0.326442
0.326479
0.326516
0.326553
0.326553
0.32659
0.326627
0.326664
0.326701
0.326701
0.326738
0.326775
0.326812
0.326849
0.326849
0.326886
0.326924
0.326961
0.326998
0.326998
0.327035
0.327073
0.32711
0.327147
0.327147
0.327185
0.327222
0.32726
0.327297
0.327297
0.327335
0.327372
0.32741
0.327448
0.327448
0.327485
0.327523
0.327561
0.327599
0.327599
0.327636
0.327674
0.327712
0.32775
0.32775
0.327788
0.327826
0.327864
0.327902
0.327902
0.32794
0.327978
0.328016
0.328054
0.328054
0.328092
0.328131
0.328169
0.328207
0.328207
0.328245
0.328284
0.328322
0.32836
0.32836
0.328399
0.328437
0.328476
0.328514
0.328514
0.328553
0.328591
0.32863
0.328669
0.328669
0.328707
0.328746
0.328785
0.328823
0.328823
0.328862
0.328901
0.32894
0.328979
0.328979
0.329018
0.329057
0.329095
0.329134
0.329134
0.329174
0.329213
0.329252
0.329291
0.329291
0.32933
0.329369
0.329408
0.329448
0.329448
0.329487
0.329526
0.329566
0.329605
0.329605
0.329644
0.329684
0.329723
0.329763
0.329763
0.329802
0.329842
0.329881
0.329921
0.329921
0.329961
0.33
0.33004
0.33008
0.33008
0.33012
0.330159
0.330199
0.330239
0.330239
0.330279
0.330319
0.330359
0.330399
0.330399
0.330439
0.330479
0.330519
0.330559
0.330559
0.330599
0.330639
0.33068
0.33072
0.33072
0.33076
0.3308
0.330841
0.330881
0.330881
0.330921
0.330962
0.331002
0.331043
0.331043
0.331083
0.331124
0.331164
0.331205
0.331205
0.331246
0.331286
0.331327
0.331368
0.331368
0.331409
0.331449
0.33149
0.331531
0.331531
0.331572
0.331613
0.331654
0.331695
0.331695
0.331736
0.331777
0.331818
0.331859
0.331859
0.3319
0.331941
0.331982
0.332024
0.332024
0.332065
0.332106
0.332148
0.332189
0.332189
0.33223
0.332272
0.332313
0.332355
0.332355
0.332396
0.332438
0.332479
0.332521
0.332521
0.332562
0.332604
0.332646
0.332687
0.332687
0.332729
0.332771
0.332813
0.332855
0.332855
0.332896
0.332938
0.33298
0.333022
0.333022
0.333064
0.333106
0.333148
0.33319
0.33319
0.333232
0.333275
0.333317
0.333359
0.333359
0.333401
0.333444
0.333486
0.333528
0.333528
0.333571
0.333613
0.333655
0.333698
0.333698
0.33374
0.333783
0.333825
0.333868
0.333868
0.33391
0.333953
0.333996
0.334038
0.334038
0.334081
0.334124
0.334167
0.33421
0.33421
0.334252
0.334295
0.334338
0.334381
0.334381
0.334424
0.334467
0.33451
0.334553
0.334553
0.334596
0.334639
0.334683
0.334726
0.334726
0.334769
0.334812
0.334856
0.334899
0.334899
0.334942
0.334986
0.335029
0.335072
0.335072
0.335116
0.335159
0.335203
0.335246
0.335246
0.33529
0.335334
0.335377
0.335421
0.335421
0.335465
0.335508
0.335552
0.335596
0.335596
0.33564
0.335684
0.335728
0.335772
0.335772
0.335816
0.335859
0.335904
0.335948
0.335948
0.335992
0.336036
0.33608
0.336124
0.336124
0.336168
0.336212
0.336257
0.336301
0.336301
0.336345
0.33639
0.336434
0.336479
0.336479
0.336523
0.336567
0.336612
0.336656
0.336656
0.336701
0.336746
0.33679
0.336835
0.336835
0.33688
0.336924
0.336969
0.337014
0.337014
0.337059
0.337104
0.337148
0.337193
0.337193
0.337238
0.337283
0.337328
0.337373
0.337373
0.337418
0.337463
0.337508
0.337554
0.337554
0.337599
0.337644
0.337689
0.337735
0.337735
0.33778
0.337825
0.337871
0.337916
0.337916
0.337961
0.338007
0.338052
0.338098
0.338098
0.338143
0.338189
0.338235
0.33828
0.33828
0.338326
0.338372
0.338417
0.338463
0.338463
0.338509
0.338555
0.3386
0.338646
0.338646
0.338692
0.338738
0.338784
0.33883
0.33883
0.338876
0.338922
0.338968
0.339015
0.339015
0.339061
0.339107
0.339153
0.339199
0.339199
0.339246
0.339292
0.339338
0.339385
0.339385
0.339431
0.339477
0.339524
0.33957
0.33957
0.339617
0.339663
0.33971
0.339757
0.339757
0.339803
0.33985
0.339897
0.339943
0.339943
0.33999
0.340037
0.340084
0.340131
0.340131
0.340178
0.340224
0.340271
0.340318
0.340318
0.340365
0.340412
0.340459
0.340507
0.340507
0.340554
0.340601
0.340648
0.340695
0.340695
0.340743
0.34079
0.340837
0.340884
0.340884
0.340932
0.340979
0.341027
0.341074
0.341074
0.341122
0.341169
0.341217
0.341264
0.341264
0.341312
0.34136
0.341407
0.341455
0.341455
0.341503
0.34155
0.341598
0.341646
0.341646
0.341694
0.341742
0.34179
0.341838
0.341838
0.341886
0.341934
0.341982
0.34203
0.34203
0.342078
0.342126
0.342174
0.342222
0.342222
0.342271
0.342319
0.342367
0.342416
0.342416
0.342464
0.342512
0.342561
0.342609
0.342609
0.342658
0.342706
0.342755
0.342803
0.342803
0.342852
0.3429
0.342949
0.342998
0.342998
0.343046
0.343095
0.343144
0.343193
0.343193
0.343242
0.34329
0.343339
0.343388
0.343388
0.343437
0.343486
0.343535
0.343584
0.343584
0.343633
0.343682
0.343732
0.343781
0.343781
0.34383
0.343879
0.343928
0.343978
0.343978
0.344027
0.344076
0.344126
0.344175
0.344175
0.344225
0.344274
0.344324
0.344373
0.344373
0.344423
0.344472
0.344522
0.344571
0.344571
0.344621
0.344671
0.344721
0.34477
0.34477
0.34482
0.34487
0.34492
0.34497
0.34497
0.34502
0.34507
0.34512
0.34517
0.34517
0.34522
0.34527
0.34532
0.34537
0.34537
0.34542
0.34547
0.345521
0.345571
0.345571
0.345621
0.345671
0.345722
0.345772
0.345772
0.345823
0.345873
0.345923
0.345974
0.345974
0.346024
0.346075
0.346126
0.346176
0.346176
0.346227
0.346278
0.346328
0.346379
0.346379
0.34643
0.346481
0.346531
0.346582
0.346582
0.346633
0.346684
0.346735
0.346786
0.346786
0.346837
0.346888
0.346939
0.34699
0.34699
0.347041
0.347092
0.347144
0.347195
0.347195
0.347246
0.347297
0.347349
0.3474
0.3474
0.347451
0.347503
0.347554
0.347606
0.347606
0.347657
0.347709
0.34776
0.347812
0.347812
0.347864
0.347915
0.347967
0.348019
0.348019
0.34807
0.348122
0.348174
0.348226
0.348226
0.348278
0.348329
0.348381
0.348433
0.348433
0.348485
0.348537
0.348589
0.348641
0.348641
0.348693
0.348746
0.348798
0.34885
0.34885
0.348902
0.348954
0.349007
0.349059
0.349059
0.349111
0.349164
0.349216
0.349268
0.349268
0.349321
0.349373
0.349426
0.349478
0.349478
0.349531
0.349584
0.349636
0.349689
0.349689
0.349742
0.349794
0.349847
0.3499
0.3499
0.349953
0.350006
0.350058
0.350111
0.350111
0.350164
0.350217
0.35027
0.350323
0.350323
0.350376
0.350429
0.350483
0.350536
0.350536
0.350589
0.350642
0.350695
0.350749
0.350749
0.350802
0.350855
0.350909
0.350962
0.350962
0.351015
0.351069
0.351122
0.351176
0.351176
0.351229
0.351283
0.351336
0.35139
0.35139
0.351444
0.351497
0.351551
0.351605
0.351605
0.351659
0.351712
0.351766
0.35182
0.35182
0.351874
0.351928
0.351982
0.352036
0.352036
0.35209
0.352144
0.352198
0.352252
0.352252
0.352306
0.35236
0.352415
0.352469
0.352469
0.352523
0.352577
0.352632
0.352686
0.352686
0.35274
0.352795
0.352849
0.352904
0.352904
0.352958
0.353013
0.353067
0.353122
0.353122
0.353177
0.353231
0.353286
0.353341
0.353341
0.353395
0.35345
0.353505
0.35356
0.35356
0.353615
0.353669
0.353724
0.353779
0.353779
0.353834
0.353889
0.353944
0.353999
0.353999
0.354054
0.35411
0.354165
0.35422
0.35422
0.354275
0.35433
0.354386
0.354441
0.354441
0.354496
0.354552
0.354607
0.354662
0.354662
0.354718
0.354773
0.354829
0.354884
0.354884
0.35494
0.354996
0.355051
0.355107
0.355107
0.355163
0.355218
0.355274
0.35533
0.35533
0.355386
0.355441
0.355497
0.355553
0.355553
0.355609
0.355665
0.355721
0.355777
0.355777
0.355833
0.355889
0.355945
0.356001
0.356001
0.356058
0.356114
0.35617
0.356226
0.356226
0.356283
0.356339
0.356395
0.356452
0.356452
0.356508
0.356564
0.356621
0.356677
0.356677
0.356734
0.356791
0.356847
0.356904
0.356904
0.35696
0.357017
0.357074
0.35713
0.35713
0.357187
0.357244
0.357301
0.357358
0.357358
0.357415
0.357471
0.357528
0.357585
0.357585
0.357642
0.357699
0.357756
0.357814
0.357814
0.357871
0.357928
0.357985
0.358042
0.358042
0.358099
0.358157
0.358214
0.358271
0.358271
0.358329
0.358386
0.358443
0.358501
0.358501
0.358558
0.358616
0.358673
0.358731
0.358731
0.358789
0.358846
0.358904
0.358962
0.358962
0.359019
0.359077
0.359135
0.359193
0.359193
0.35925
0.359308
0.359366
0.359424
0.359424
0.359482
0.35954
0.359598
0.359656
0.359656
0.359714
0.359772
0.35983
0.359889
0.359889
0.359947
0.360005
0.360063
0.360121
0.360121
0.36018
0.360238
0.360296
0.360355
0.360355
0.360413
0.360472
0.36053
0.360589
0.360589
0.360647
0.360706
0.360764
0.360823
0.360823
0.360882
0.36094
0.360999
0.361058
0.361058
0.361117
0.361175
0.361234
0.361293
0.361293
0.361352
0.361411
0.36147
0.361529
0.361529
0.361588
0.361647
0.361706
0.361765
0.361765
0.361824
0.361883
0.361943
0.362002
0.362002
0.362061
0.36212
0.36218
0.362239
0.362239
0.362298
0.362358
0.362417
0.362477
0.362477
0.362536
0.362596
0.362655
0.362715
0.362715
0.362774
0.362834
0.362894
0.362953
0.362953
0.363013
0.363073
0.363133
0.363192
0.363192
0.363252
0.363312
0.363372
0.363432
0.363432
0.363492
0.363552
0.363612
0.363672
0.363672
0.363732
0.363792
0.363852
0.363912
0.363912
0.363973
0.364033
0.364093
0.364153
0.364153
0.364214
0.364274
0.364334
0.364395
0.364395
0.364455
0.364516
0.364576
0.364637
0.364637
0.364697
0.364758
0.364818
0.364879
0.364879
0.36494
0.365
0.365061
0.365122
0.365122
0.365183
0.365244
0.365304
0.365365
0.365365
0.365426
0.365487
0.365548
0.365609
0.365609
0.36567
0.365731
0.365792
0.365853
0.365853
0.365914
0.365976
0.366037
0.366098
0.366098
0.366159
0.366221
0.366282
0.366343
0.366343
0.366405
0.366466
0.366527
0.366589
0.366589
0.36665
0.366712
0.366773
0.366835
0.366835
0.366897
0.366958
0.36702
0.367082
0.367082
0.367143
0.367205
0.367267
0.367329
0.367329
0.36739
0.367452
0.367514
0.367576
0.367576
0.367638
0.3677
0.367762
0.367824
0.367824
0.367886
0.367948
0.36801
0.368073
0.368073
0.368135
0.368197
0.368259
0.368322
0.368322
0.368384
0.368446
0.368509
0.368571
0.368571
0.368633
0.368696
0.368758
0.368821
0.368821
0.368883
0.368946
0.369009
0.369071
0.369071
0.369134
0.369197
0.369259
0.369322
0.369322
0.369385
0.369448
0.36951
0.369573
0.369573
0.369636
0.369699
0.369762
0.369825
0.369825
0.369888
0.369951
0.370014
0.370077
0.370077
0.37014
0.370204
0.370267
0.37033
0.37033
0.370393
0.370456
0.37052
0.370583
0.370583
0.370646
0.37071
0.370773
0.370837
0.370837
0.3709
0.370964
0.371027
0.371091
0.371091
0.371154
0.371218
0.371282
0.371345
0.371345
0.371409
0.371473
0.371537
0.3716
0.3716
0.371664
0.371728
0.371792
0.371856
0.371856
0.37192
0.371984
0.372048
0.372112
0.372112
0.372176
0.37224
0.372304
0.372368
0.372368
0.372432
0.372497
0.372561
0.372625
0.372625
0.372689
0.372754
0.372818
0.372882
0.372882
0.372947
0.373011
0.373076
0.37314
0.37314
0.373205
0.373269
0.373334
0.373398
0.373398
0.373463
0.373528
0.373592
0.373657
0.373657
0.373722
0.373787
0.373852
0.373916
0.373916
0.373981
0.374046
0.374111
0.374176
0.374176
0.374241
0.374306
0.374371
0.374436
0.374436
0.374501
0.374566
0.374632
0.374697
0.374697
0.374762
0.374827
0.374892
0.374958
0.374958
0.375023
0.375088
0.375154
0.375219
0.375219
0.375285
0.37535
0.375416
0.375481
0.375481
0.375547
0.375612
0.375678
0.375744
0.375744
0.375809
0.375875
0.375941
0.376007
0.376007
0.376072
0.376138
0.376204
0.37627
0.37627
0.376336
0.376402
0.376468
0.376534
0.376534
0.3766
0.376666
0.376732
0.376798
0.376798
0.376864
0.37693
0.376997
0.377063
0.377063
0.377129
0.377195
0.377262
0.377328
0.377328
0.377394
0.377461
0.377527
0.377594
0.377594
0.37766
0.377727
0.377793
0.37786
0.37786
0.377927
0.377993
0.37806
0.378127
0.378127
0.378193
0.37826
0.378327
0.378394
0.378394
0.37846
0.378527
0.378594
0.378661
0.378661
0.378728
0.378795
0.378862
0.378929
0.378929
0.378996
0.379063
0.37913
0.379198
0.379198
0.379265
0.379332
0.379399
0.379466
0.379466
0.379534
0.379601
0.379668
0.379736
0.379736
0.379803
0.379871
0.379938
0.380006
0.380006
0.380073
0.380141
0.380208
0.380276
0.380276
0.380344
0.380411
0.380479
0.380547
0.380547
0.380615
0.380682
0.38075
0.380818
0.380818
0.380886
0.380954
0.381022
0.38109
0.38109
0.381158
0.381226
0.381294
0.381362
0.381362
0.38143
0.381498
0.381566
0.381634
0.381634
0.381703
0.381771
0.381839
0.381907
0.381907
0.381976
0.382044
0.382112
0.382181
0.382181
0.382249
0.382318
0.382386
0.382455
0.382455
0.382523
0.382592
0.382661
0.382729
0.382729
0.382798
0.382867
0.382935
0.383004
0.383004
0.383073
0.383142
0.383211
0.38328
0.38328
0.383348
0.383417
0.383486
0.383555
0.383555
0.383624
0.383693
0.383762
0.383832
0.383832
0.383901
0.38397
0.384039
0.384108
0.384108
0.384178
0.384247
0.384316
0.384385
0.384385
0.384455
0.384524
0.384594
0.384663
0.384663
0.384733
0.384802
0.384872
0.384941
0.384941
0.385011
0.38508
0.38515
0.38522
0.38522
0.385289
0.385359
0.385429
0.385499
0.385499
0.385569
0.385638
0.385708
0.385778
0.385778
0.385848
0.385918
0.385988
0.386058
0.386058
0.386128
0.386198
0.386268
0.386338
0.386338
0.386409
0.386479
0.386549
0.386619
0.386619
0.38669
0.38676
0.38683
0.386901
0.386901
0.386971
0.387041
0.387112
0.387182
0.387182
0.387253
0.387323
0.387394
0.387464
0.387464
0.387535
0.387606
0.387676
0.387747
0.387747
0.387818
0.387889
0.387959
0.38803
0.38803
0.388101
0.388172
0.388243
0.388314
0.388314
0.388385
0.388456
0.388527
0.388598
0.388598
0.388669
0.38874
0.388811
0.388882
0.388882
0.388953
0.389025
0.389096
0.389167
0.389167
0.389238
0.38931
0.389381
0.389453
0.389453
0.389524
0.389595
0.389667
0.389738
0.389738
0.38981
0.389881
0.389953
0.390025
0.390025
0.390096
0.390168
0.39024
0.390311
0.390311
0.390383
0.390455
0.390527
0.390599
0.390599
0.39067
0.390742
0.390814
0.390886
0.390886
0.390958
0.39103
0.391102
0.391174
0.391174
0.391246
0.391318
0.391391
0.391463
0.391463
0.391535
0.391607
0.39168
0.391752
0.391752
0.391824
0.391896
0.391969
0.392041
0.392041
0.392114
0.392186
0.392259
0.392331
0.392331
0.392404
0.392476
0.392549
0.392621
0.392621
0.392694
0.392767
0.39284
0.392912
0.392912
0.392985
0.393058
0.393131
0.393204
0.393204
0.393276
0.393349
0.393422
0.393495
0.393495
0.393568
0.393641
0.393714
0.393787
0.393787
0.393861
0.393934
0.394007
0.39408
0.39408
0.394153
0.394226
0.3943
0.394373
0.394373
0.394446
0.39452
0.394593
0.394667
0.394667
0.39474
0.394813
0.394887
0.394961
0.394961
0.395034
0.395108
0.395181
0.395255
0.395255
0.395329
0.395402
0.395476
0.39555
0.39555
0.395624
0.395697
0.395771
0.395845
0.395845
0.395919
0.395993
0.396067
0.396141
0.396141
0.396215
0.396289
0.396363
0.396437
0.396437
0.396511
0.396585
0.396659
0.396734
0.396734
0.396808
0.396882
0.396956
0.397031
0.397031
0.397105
0.39718
0.397254
0.397328
0.397328
0.397403
0.397477
0.397552
0.397626
0.397626
0.397701
0.397775
0.39785
0.397925
0.397925
0.397999
0.398074
0.398149
0.398224
0.398224
0.398298
0.398373
0.398448
0.398523
0.398523
0.398598
0.398673
0.398748
0.398823
0.398823
0.398898
0.398973
0.399048
0.399123
0.399123
0.399198
0.399273
0.399348
0.399424
0.399424
0.399499
0.399574
0.399649
0.399725
0.399725
0.3998
0.399876
0.399951
0.400026
0.400026
0.400102
0.400177
0.400253
0.400328
0.400328
0.400404
0.40048
0.400555
0.400631
0.400631
0.400707
0.400782
0.400858
0.400934
0.400934
0.40101
0.401085
0.401161
0.401237
0.401237
0.401313
0.401389
0.401465
0.401541
0.401541
0.401617
0.401693
0.401769
0.401845
0.401845
0.401921
0.401997
0.402074
0.40215
0.40215
0.402226
0.402302
0.402379
0.402455
0.402455
0.402531
0.402608
0.402684
0.402761
0.402761
0.402837
0.402914
0.40299
0.403067
0.403067
0.403143
0.40322
0.403296
0.403373
0.403373
0.40345
0.403526
0.403603
0.40368
0.40368
0.403757
0.403834
0.40391
0.403987
0.403987
0.404064
0.404141
0.404218
0.404295
0.404295
0.404372
0.404449
0.404526
0.404603
0.404603
0.404681
0.404758
0.404835
0.404912
0.404912
0.404989
0.405067
0.405144
0.405221
0.405221
0.405299
0.405376
0.405453
0.405531
0.405531
0.405608
0.405686
0.405763
0.405841
0.405841
0.405918
0.405996
0.406074
0.406151
0.406151
0.406229
0.406307
0.406384
0.406462
0.406462
0.40654
0.406618
0.406696
0.406774
0.406774
0.406851
0.406929
0.407007
0.407085
0.407085
0.407163
0.407241
0.407319
0.407398
0.407398
0.407476
0.407554
0.407632
0.40771
0.40771
0.407788
0.407867
0.407945
0.408023
0.408023
0.408102
0.40818
0.408258
0.408337
0.408337
0.408415
0.408494
0.408572
0.408651
0.408651
0.408729
0.408808
0.408887
0.408965
0.408965
0.409044
0.409123
0.409201
0.40928
0.40928
0.409359
0.409438
0.409517
0.409595
0.409595
0.409674
0.409753
0.409832
0.409911
0.409911
0.40999
0.410069
0.410148
0.410227
0.410227
0.410306
0.410386
0.410465
0.410544
0.410544
0.410623
0.410702
0.410782
0.410861
0.410861
0.41094
0.41102
0.411099
0.411179
0.411179
0.411258
0.411337
0.411417
0.411496
0.411496
0.411576
0.411656
0.411735
0.411815
0.411815
0.411895
0.411974
0.412054
0.412134
0.412134
0.412213
0.412293
0.412373
0.412453
0.412453
0.412533
0.412613
0.412693
0.412773
0.412773
0.412853
0.412933
0.413013
0.413093
0.413093
0.413173
0.413253
0.413333
0.413413
0.413413
0.413494
0.413574
0.413654
0.413734
0.413734
0.413815
0.413895
0.413975
0.414056
0.414056
0.414136
0.414217
0.414297
0.414378
0.414378
0.414458
0.414539
0.414619
0.4147
0.4147
0.414781
0.414861
0.414942
0.415023
0.415023
0.415103
0.415184
0.415265
0.415346
0.415346
0.415427
0.415508
0.415589
0.415669
0.415669
0.41575
0.415831
0.415912
0.415994
0.415994
0.416075
0.416156
0.416237
0.416318
0.416318
0.416399
0.41648
0.416562