<?xml version="1.0"?>
<VTKFile type="UnstructuredGrid" version="0.1" byte_order="LittleEndian">
<UnstructuredGrid>
<Piece NumberOfPoints="5000" NumberOfCells="4000">
<PointData Scalars="Reaction 0">
<DataArray type="Float32" Name="Reaction 0" format="ascii">
0.424035
0.424035
0.424035
0.424035
0.424035
0.424035
0.424036
0.424036
0.424036
0.424036
0.424036
0.424036
0.424037
0.424037
0.424037
0.424037
0.424038
0.424038
0.424039
0.424039
0.424039
0.42404
0.42404
0.424041
0.424041
0.424041
0.424042
0.424043
0.424043
0.424044
0.424044
0.424045
0.424045
0.424046
0.424047
0.424047
0.424048
0.424049
0.42405
0.424051
0.424051
0.424052
0.424053
0.424054
0.424055
0.424055
0.424056
0.424057
0.424058
0.42406
0.42406
0.424061
0.424062
0.424063
0.424065
0.424065
0.424066
0.424067
0.424069
0.42407
0.42407
0.424072
0.424073
0.424075
0.424076
0.424076
0.424078
0.424079
0.424081
0.424083
0.424083
0.424085
0.424086
0.424088
0.42409
0.42409
0.424092
0.424094
0.424095
0.424097
0.424097
0.424099
0.424101
0.424103
0.424105
0.424105
0.424108
0.42411
0.424112
0.424114
0.424114
0.424116
0.424118
0.424121
0.424123
0.424123
0.424125
0.424128
0.42413
0.424132
0.424132
0.424135
0.424137
0.42414
0.424142
0.424142
0.424145
0.424148
0.42415
0.424153
0.424153
0.424156
0.424158
0.424161
0.424164
0.424164
0.424167
0.424169
0.424172
0.424175
0.424175
0.424178
0.424181
0.424184
0.424187
0.424187
0.42419
0.424193
0.424196
0.424199
0.424199
0.424203
0.424206
0.424209
0.424212
0.424212
0.424216
0.424219
0.424222
0.424226
0.424226
0.424229
0.424233
0.424236
0.42424
0.42424
0.424243
0.424247
0.42425
0.424254
0.424254
0.424258
0.424261
0.424265
0.424269
0.424269
0.424273
0.424276
0.42428
0.424284
0.424284
0.424288
0.424292
0.424296
0.4243
0.4243
0.424304
0.424308
0.424312
0.424316
0.424316
0.42432
0.424324
0.424329
0.424333
0.424333
0.424337
0.424341
0.424346
0.42435
0.42435
0.424355
0.424359
0.424363
0.424368
0.424368
0.424372
0.424377
0.424381
0.424386
0.424386
0.424391
0.424395
0.4244
0.424405
0.424405
0.42441
0.424414
0.424419
0.424424
0.424424
0.424429
0.424434
0.424439
0.424444
0.424444
0.424449
0.424454
0.424459
0.424464
0.424464
0.424469
0.424474
0.424479
0.424485
0.424485
0.42449
0.424495
0.4245
0.424506
0.424506
0.424511
0.424516
0.424522
0.424527
0.424527
0.424533
0.424538
0.424544
0.424549
0.424549
0.424555
0.424561
0.424566
0.424572
0.424572
0.424578
0.424584
0.424589
0.424595
0.424595
0.424601
0.424607
0.424613
0.424619
0.424619
0.424625
0.424631
0.424637
0.424643
0.424643
0.424649
0.424655
0.424661
0.424667
0.424667
0.424674
0.42468
0.424686
0.424692
0.424692
0.424699
0.424705
0.424711
0.424718
0.424718
0.424724
0.424731
0.424737
0.424744
0.424744
0.42475
0.424757
0.424764
0.42477
0.42477
0.424777
0.424784
0.424791
0.424797
0.424797
0.424804
0.424811
0.424818
0.424825
0.424825
0.424832
0.424839
0.424846
0.424853
0.424853
0.42486
0.424867
0.424874
0.424881
0.424881
0.424888
0.424896
0.424903
0.42491
0.42491
0.424917
0.424925
0.424932
0.42494
0.42494
0.424947
0.424954
0.424962
0.424969
0.424969
0.424977
0.424985
0.424992
0.425
0.425
0.425008
0.425015
0.425023
0.425031
0.425031
0.425039
0.425046
0.425054
0.425062
0.425062
0.42507
0.425078
0.425086
0.425094
0.425094
0.425102
0.42511
0.425118
0.425126
0.425126
0.425134
0.425143
0.425151
0.425159
0.425159
0.425167
0.425176
0.425184
0.425192
0.425192
0.425201
0.425209
0.425218
0.425226
0.425226
0.425235
0.425243
0.425252
0.425261
0.425261
0.425269
0.425278
0.425287
0.425295
0.425295
0.425304
0.425313
0.425322
0.425331
0.425331
0.425339
0.425348
0.425357
0.425366
0.425366
0.425375
0.425384
0.425393
0.425403
0.425403
0.425412
0.425421
0.42543
0.425439
0.425439
0.425449
0.425458
0.425467
0.425477
0.425477
0.425486
0.425495
0.425505
0.425514
0.425514
0.425524
0.425533
0.425543
0.425552
0.425552
0.425562
0.425572
0.425581
0.425591
0.425591
0.425601
0.425611
0.42562
0.42563
0.42563
0.42564
0.42565
0.42566
0.42567
0.42567
0.42568
0.42569
0.4257
0.42571
0.42571
0.42572
0.42573
0.42574
0.425751
0.425751
0.425761
0.425771
0.425781
0.425792
0.425792
0.425802
0.425813
0.425823
0.425833
0.425833
0.425844
0.425854
0.425865
0.425875
0.425875
0.425886
0.425897
0.425907
0.425918
0.425918
0.425929
0.42594
0.42595
0.425961
0.425961
0.425972
0.425983
0.425994
0.426005
0.426005
0.426016
0.426027
0.426038
0.426049
0.426049
0.42606
0.426071
0.426082
0.426093
0.426093
0.426104
0.426116
0.426127
0.426138
0.426138
0.42615
0.426161
0.426172
0.426184
0.426184
0.426195
0.426207
0.426218
0.42623
0.42623
0.426241
0.426253
0.426265
0.426276
0.426276
0.426288
0.4263
0.426311
0.426323
0.426323
0.426335
0.426347
0.426359
0.426371
0.426371
0.426383
0.426395
0.426407
0.426419
0.426419
0.426431
0.426443
0.426455
0.426467
0.426467
0.426479
0.426491
0.426504
0.426516
0.426516
0.426528
0.426541
0.426553
0.426565
0.426565
0.426578
0.42659
0.426603
0.426615
0.426615
0.426628
0.42664
0.426653
0.426666
0.426666
0.426678
0.426691
0.426704
0.426717
0.426717
0.426729
0.426742
0.426755
0.426768
0.426768
0.426781
0.426794
0.426807
0.42682
0.42682
0.426833
0.426846
0.426859
0.426872
0.426872
0.426885
0.426898
0.426912
0.426925
0.426925
0.426938
0.426952
0.426965
0.426978
0.426978
0.426992
0.427005
0.427019
0.427032
0.427032
0.427046
0.427059
0.427073
0.427086
0.427086
0.4271
0.427114
0.427127
0.427141
0.427141
0.427155
0.427169
0.427183
0.427196
0.427196
0.42721
0.427224
0.427238
0.427252
0.427252
0.427266
0.42728
0.427294
0.427308
0.427308
0.427323
0.427337
0.427351
0.427365
0.427365
0.427379
0.427394
0.427408
0.427422
0.427422
0.427437
0.427451
0.427466
0.42748
0.42748
0.427495
0.427509
0.427524
0.427538
0.427538
0.427553
0.427568
0.427582
0.427597
0.427597
0.427612
0.427627
0.427641
0.427656
0.427656
0.427671
0.427686
0.427701
0.427716
0.427716
0.427731
0.427746
0.427761
0.427776
0.427776
0.427791
0.427806
0.427822
0.427837
0.427837
0.427852
0.427867
0.427883
0.427898
0.427898
0.427913
0.427929
0.427944
0.42796
0.42796
0.427975
0.427991
0.428006
0.428022
0.428022
0.428037
0.428053
0.428069
0.428084
0.428084
0.4281
0.428116
0.428132
0.428148
0.428148
0.428163
0.428179
0.428195
0.428211
0.428211
0.428227
0.428243
0.428259
0.428275
0.428275
0.428291
0.428307
0.428324
0.42834
0.42834
0.428356
0.428372
0.428389
0.428405
0.428405
0.428421
0.428438
0.428454
0.42847
0.42847
0.428487
0.428503
0.42852
0.428536
0.428536
0.428553
0.42857
0.428586
0.428603
0.428603
0.42862
0.428637
0.428653
0.42867
0.42867
0.428687
0.428704
0.428721
0.428738
0.428738
0.428755
0.428772
0.428789
0.428806
0.428806
0.428823
0.42884
0.428857
0.428874
0.428874
0.428891
0.428909
0.428926
0.428943
0.428943
0.42896
0.428978
0.428995
0.429013
0.429013
0.42903
0.429048
0.429065
0.429083
0.429083
0.4291
0.429118
0.429135
0.429153
0.429153
0.429171
0.429189
0.429206
0.429224
0.429224
0.429242
0.42926
0.429278
0.429296
0.429296
0.429313
0.429331
0.429349
0.429368
0.429368
0.429386
0.429404
0.429422
0.42944
0.42944
0.429458
0.429476
0.429495
0.429513
0.429513
0.429531
0.42955
0.429568
0.429586
0.429586
0.429605
0.429623
0.429642
0.42966
0.42966
0.429679
0.429697
0.429716
0.429735
0.429735
0.429753
0.429772
0.429791
0.42981
0.42981
0.429828
0.429847
0.429866
0.429885
0.429885
0.429904
0.429923
0.429942
0.429961
0.429961
0.42998
0.429999
0.430018
0.430037
0.430037
0.430056
0.430076
0.430095
0.430114
0.430114
0.430133
0.430153
0.430172
0.430191
0.430191
0.430211
0.43023
0.43025
0.430269
0.430269
0.430289
0.430308
0.430328
0.430348
0.430348
0.430367
0.430387
0.430407
0.430427
0.430427
0.430446
0.430466
0.430486
0.430506
0.430506
0.430526
0.430546
0.430566
0.430586
0.430586
0.430606
0.430626
0.430646
0.430666
0.430666
0.430686
0.430706
0.430727
0.430747
0.430747
0.430767
0.430787
0.430808
0.430828
0.430828
0.430849
0.430869
0.430889
0.43091
0.43091
0.43093
0.430951
0.430972
0.430992
0.430992
0.431013
0.431034
0.431054
0.431075
0.431075
0.431096
0.431117
0.431137
0.431158
0.431158
0.431179
0.4312
0.431221
0.431242
0.431242
0.431263
0.431284
0.431305
0.431326
0.431326
0.431347
0.431369
0.43139
0.431411
0.431411
0.431432
0.431454
0.431475
0.431496
0.431496
0.431518
0.431539
0.431561
0.431582
0.431582
0.431604
0.431625
0.431647
0.431668
0.431668
0.43169
0.431712
0.431733
0.431755
0.431755
0.431777
0.431799
0.43182
0.431842
0.431842
0.431864
0.431886
0.431908
0.43193
0.43193
0.431952
0.431974
0.431996
0.432018
0.432018
0.43204
0.432063
0.432085
0.432107
0.432107
0.432129
0.432152
0.432174
0.432196
0.432196
0.432219
0.432241
0.432263
0.432286
0.432286
0.432308
0.432331
0.432354
0.432376
0.432376
0.432399
0.432421
0.432444
0.432467
0.432467
0.43249
0.432512
0.432535
0.432558
0.432558
0.432581
0.432604
0.432627
0.43265
0.43265
0.432673
0.432696
0.432719
0.432742
0.432742
0.432765
0.432788
0.432811
0.432835
0.432835
0.432858
0.432881
0.432904
0.432928
0.432928
0.432951
0.432975
0.432998
0.433021
0.433021
0.433045
0.433068
0.433092
0.433116
0.433116
0.433139
0.433163
0.433187
0.43321
0.43321
0.433234
0.433258
0.433282
0.433305
0.433305
0.433329
0.433353
0.433377
0.433401
0.433401
0.433425
0.433449
0.433473
0.433497
0.433497
0.433521
0.433545
0.43357
0.433594
0.433594
0.433618
0.433642
0.433667
0.433691
0.433691
0.433715
0.43374
0.433764
0.433789
0.433789
0.433813
0.433838
0.433862
0.433887
0.433887
0.433911
0.433936
0.433961
0.433985
0.433985
0.43401
0.434035
0.43406
0.434085
0.434085
0.434109
0.434134
0.434159
0.434184
0.434184
0.434209
0.434234
0.434259
0.434284
0.434284
0.434309
0.434335
0.43436
0.434385
0.434385
0.43441
0.434435
0.434461
0.434486
0.434486
0.434511
0.434537
0.434562
0.434588
0.434588
0.434613
0.434639
0.434664
0.43469
0.43469
0.434715
0.434741
0.434767
0.434792
0.434792
0.434818
0.434844
0.43487
0.434895
0.434895
0.434921
0.434947
0.434973
0.434999
0.434999
0.435025
0.435051
0.435077
0.435103
0.435103
0.435129
0.435155
0.435182
0.435208
0.435208
0.435234
0.43526
0.435287
0.435313
0.435313
0.435339
0.435366
0.435392
0.435418
0.435418
0.435445
0.435471
0.435498
0.435525
0.435525
0.435551
0.435578
0.435604
0.435631
0.435631
0.435658
0.435685
0.435711
0.435738
0.435738
0.435765
0.435792
0.435819
0.435846
0.435846
0.435873
0.4359
0.435927
0.435954
0.435954
0.435981
0.436008
0.436035
0.436063
0.436063
0.43609
0.436117
0.436144
0.436172
0.436172
0.436199
0.436226
0.436254
0.436281
0.436281
0.436309
0.436336
0.436364
0.436391
0.436391
0.436419
0.436447
0.436474
0.436502
0.436502
0.43653
0.436557
0.436585
0.436613
0.436613
0.436641
0.436669
0.436697
0.436725
0.436725
0.436753
0.436781
0.436809
0.436837
0.436837
0.436865
0.436893
0.436921
0.436949
0.436949
0.436978
0.437006
0.437034
0.437062
0.437062
0.437091
0.437119
0.437148
0.437176
0.437176
0.437204
0.437233
0.437261
0.43729
0.43729
0.437319
0.437347
0.437376
0.437405
0.437405
0.437433
0.437462
0.437491
0.43752
0.43752
0.437549
0.437577
0.437606
0.437635
0.437635
0.437664
0.437693
0.437722
0.437751
0.437751
0.437781
0.43781
0.437839
0.437868
0.437868
0.437897
0.437927
0.437956
0.437985
0.437985
0.438014
0.438044
0.438073
0.438103
0.438103
0.438132
0.438162
0.438191
0.438221
0.438221
0.43825
0.43828
0.43831
0.438339
0.438339
0.438369
0.438399
0.438429
0.438459
0.438459
0.438488
0.438518
0.438548
0.438578
0.438578
0.438608
0.438638
0.438668
0.438698
0.438698
0.438728
0.438758
0.438789
0.438819
0.438819
0.438849
0.438879
0.43891
0.43894
0.43894
0.43897
0.439001
0.439031
0.439062
0.439062
0.439092
0.439123
0.439153
0.439184
0.439184
0.439214
0.439245
0.439276
0.439306
0.439306
0.439337
0.439368
0.439399
0.439429
0.439429
0.43946
0.439491
0.439522
0.439553
0.439553
0.439584
0.439615
0.439646
0.439677
0.439677
0.439708
0.439739
0.439771
0.439802
0.439802
0.439833
0.439864
0.439896
0.439927
0.439927
0.439958
0.43999
0.440021
0.440053
0.440053
0.440084
0.440116
0.440147
0.440179
0.440179
0.44021
0.440242
0.440274
0.440305
0.440305
0.440337
0.440369
0.440401
0.440433
0.440433
0.440464
0.440496
0.440528
0.44056
0.44056
0.440592
0.440624
0.440656
0.440688
0.440688
0.440721
0.440753
0.440785
0.440817
0.440817
0.440849
0.440882
0.440914
0.440946
0.440946
0.440979
0.441011
0.441043
0.441076
0.441076
0.441108
0.441141
0.441174
0.441206
0.441206
0.441239
0.441271
0.441304
0.441337
0.441337
0.44137
0.441402
0.441435
0.441468
0.441468
0.441501
0.441534
0.441567
0.4416
0.4416
0.441633
0.441666
0.441699
0.441732
0.441732
0.441765
0.441798
0.441831
0.441865
0.441865
0.441898
0.441931
0.441965
0.441998
0.441998
0.442031
0.442065
0.442098
0.442132
0.442132
0.442165
0.442199
0.442232
0.442266
0.442266
0.442299
0.442333
0.442367
0.442401
0.442401
0.442434
0.442468
0.442502
0.442536
0.442536
0.44257
0.442604
0.442638
0.442672
0.442672
0.442706
0.44274
0.442774
0.442808
0.442808
0.442842
0.442876
0.44291
0.442945
0.442945
0.442979
0.443013
0.443047
0.443082
0.443082
0.443116
0.443151
0.443185
0.44322
0.44322
0.443254
0.443289
0.443323
0.443358
0.443358
0.443393
0.443427
0.443462
0.443497
0.443497
0.443532
0.443566
0.443601
0.443636
0.443636
0.443671
0.443706
0.443741
0.443776
0.443776
0.443811
0.443846
0.443881
0.443916
0.443916
0.443951
0.443987
0.444022
0.444057
0.444057
0.444092
0.444128
0.444163
0.444198
0.444198
0.444234
0.444269
0.444305
0.44434
0.44434
0.444376
0.444411
0.444447
0.444483
0.444483
0.444518
0.444554
0.44459
0.444625
0.444625
0.444661
0.444697
0.444733
0.444769
0.444769
0.444805
0.444841
0.444877
0.444913
0.444913
0.444949
0.444985
0.445021
0.445057
0.445057
0.445093
0.445129
0.445166
0.445202
0.445202
0.445238
0.445275
0.445311
0.445347
0.445347
0.445384
0.44542
0.445457
0.445493
0.445493
0.44553
0.445567
0.445603
0.44564
0.44564
0.445676
0.445713
0.44575
0.445787
0.445787
0.445824
0.44586
0.445897
0.445934
0.445934
0.445971
0.446008
0.446045
0.446082
0.446082
0.446119
0.446156
0.446193
0.446231
0.446231
0.446268
0.446305
0.446342
0.44638
0.44638
0.446417
0.446454
0.446492
0.446529
0.446529
0.446567
0.446604
0.446642
0.446679
0.446679
0.446717
0.446754
0.446792
0.44683
0.44683
0.446867
0.446905
0.446943
0.446981
0.446981
0.447019
0.447056
0.447094
0.447132
0.447132
0.44717
0.447208
0.447246
0.447284
0.447284
0.447322
0.447361
0.447399
0.447437
0.447437
0.447475
0.447513
0.447552
0.44759
0.44759
0.447628
0.447667
0.447705
0.447744
0.447744
0.447782
0.447821
0.447859
0.447898
0.447898
0.447936
0.447975
0.448014
0.448052
0.448052
0.448091
0.44813
0.448169
0.448208
0.448208
0.448246
0.448285
0.448324
0.448363
0.448363
0.448402
0.448441
0.44848
0.448519
0.448519
0.448559
0.448598
0.448637
0.448676
0.448676
0.448715
0.448755
0.448794
0.448833
0.448833
0.448873
0.448912
0.448952
0.448991
0.448991
0.449031
0.44907
0.44911
0.449149
0.449149
0.449189
0.449229
0.449268
0.449308
0.449308
0.449348
0.449388
0.449427
0.449467
0.449467
0.449507
0.449547
0.449587
0.449627
0.449627
0.449667
0.449707
0.449747
0.449787
0.449787
0.449828
0.449868
0.449908
0.449948
0.449948
0.449988
0.450029
0.450069
0.45011
0.45011
0.45015
0.45019
0.450231
0.450271
0.450271
0.450312
0.450353
0.450393
0.450434
0.450434
0.450474
0.450515
0.450556
0.450597
0.450597
0.450637
0.450678
0.450719
0.45076
0.45076
0.450801
0.450842
0.450883
0.450924
0.450924
0.450965
0.451006
0.451047
0.451088
0.451088
0.45113
0.451171
0.451212
0.451253
0.451253
0.451295
0.451336
0.451377
0.451419
0.451419
0.45146
0.451502
0.451543
0.451585
0.451585
0.451626
0.451668
0.45171
0.451751
0.451751
0.451793
0.451835
0.451877
0.451918
0.451918
0.45196
0.452002
0.452044
0.452086
0.452086
0.452128
0.45217
0.452212
0.452254
0.452254
0.452296
0.452338
0.45238
0.452423
0.452423
0.452465
0.452507
0.452549
0.452592
0.452592
0.452634
0.452676
0.452719
0.452761
0.452761
0.452804
0.452846
0.452889
0.452931
0.452931
0.452974
0.453017
0.453059
0.453102
0.453102
0.453145
0.453188
0.45323
0.453273
0.453273
0.453316
0.453359
0.453402
0.453445
0.453445
0.453488
0.453531
0.453574
0.453617
0.453617
0.45366
0.453704
0.453747
0.45379
0.45379
0.453833
0.453877
0.45392
0.453963
0.453963
0.454007
0.45405
0.454094
0.454137
0.454137
0.454181
0.454224
0.454268
0.454311
0.454311
0.454355
0.454399
0.454442
0.454486
0.454486
0.45453
0.454574
0.454618
0.454662
0.454662
0.454705
0.454749
0.454793
0.454837
0.454837
0.454881
0.454926
0.45497
0.455014
0.455014
0.455058
0.455102
0.455146
0.455191
0.455191
0.455235
0.455279
0.455324
0.455368
0.455368
0.455413
0.455457
0.455502
0.455546
0.455546
0.455591
0.455635
0.45568
0.455725
0.455725
0.455769
0.455814
0.455859
0.455904
0.455904
0.455949
0.455993
0.456038
0.456083
0.456083
0.456128
0.456173
0.456218
0.456263
0.456263
0.456308
0.456354
0.456399
0.456444
0.456444
0.456489
0.456534
0.45658
0.456625
0.456625
0.45667
0.456716
0.456761
0.456807
0.456807
0.456852
0.456898
0.456943
0.456989
0.456989
0.457034
0.45708
0.457126
0.457172
0.457172
0.457217
0.457263
0.457309
0.457355
0.457355
0.457401
0.457447
0.457493
0.457538
0.457538
0.457585
0.457631
0.457677
0.457723
0.457723
0.457769
0.457815
0.457861
0.457908
0.457908
0.457954
0.458
0.458047
0.458093
0.458093
0.458139
0.458186
0.458232
0.458279
0.458279
0.458325
0.458372
0.458418
0.458465
0.458465
0.458512
0.458559
0.458605
0.458652
0.458652
0.458699
0.458746
0.458793
0.458839
0.458839
0.458886
0.458933
0.45898
0.459027
0.459027
0.459075
0.459122
0.459169
0.459216
0.459216
0.459263
0.45931
0.459358
0.459405
0.459405
0.459452
0.4595
0.459547
0.459595
0.459595
0.459642
0.45969
0.459737
0.459785
0.459785
0.459832
0.45988
0.459928
0.459975
0.459975
0.460023
0.460071
0.460119
0.460166
0.460166
0.460214
0.460262
0.46031
0.460358
0.460358
0.460406
0.460454
0.460502
0.46055
0.46055
0.460598
0.460647
0.460695
0.460743
0.460743
0.460791
0.46084
0.460888
0.460936
0.460936
0.460985
0.461033
0.461082
0.46113
0.46113
0.461179
0.461227
0.461276
0.461324
0.461324
0.461373
0.461422
0.46147
0.461519
0.461519
0.461568
0.461617
0.461666
0.461715
0.461715
0.461764
0.461813
0.461862
0.461911
0.461911
0.46196
0.462009
0.462058
0.462107
0.462107
0.462156
0.462205
0.462255
0.462304
0.462304
0.462353
0.462403
0.462452
0.462502
0.462502
0.462551
0.4626
0.46265
0.4627
0.4627
0.462749
0.462799
0.462848
0.462898
0.462898
0.462948
0.462998
0.463047
0.463097
0.463097
0.463147
0.463197
0.463247
0.463297
0.463297
0.463347
0.463397
0.463447
0.463497
0.463497
0.463547
0.463597
0.463648
0.463698
0.463698
0.463748
0.463798
0.463849
0.463899
0.463899
0.46395
0.464
0.46405
0.464101
0.464101
0.464151
0.464202
0.464253
0.464303
0.464303
0.464354
0.464405
0.464455
0.464506
0.464506
0.464557
0.464608
0.464659
0.46471
0.46471
0.46476
0.464811
0.464862
0.464913
0.464913
0.464965
0.465016
0.465067
0.465118
0.465118
0.465169
0.46522
0.465272
0.465323
0.465323
0.465374
0.465426
0.465477
0.465529
0.465529
0.46558
0.465632
0.465683
0.465735
0.465735
0.465786
0.465838
0.46589
0.465941
0.465941
0.465993
0.466045
0.466097
0.466148
0.466148
0.4662
0.466252
0.466304
0.466356
0.466356
0.466408
0.46646
0.466512
0.466564
0.466564
0.466617
0.466669
0.466721
0.466773
0.466773
0.466825
0.466878
0.46693
0.466982
0.466982
0.467035
0.467087
0.46714
0.467192
0.467192
0.467245
0.467297
0.46735
0.467403
0.467403
0.467455
0.467508
0.467561
0.467614
0.467614
0.467667
0.467719
0.467772
0.467825
0.467825
0.467878
0.467931
0.467984
0.468037
0.468037
0.46809
0.468143
0.468197
0.46825
0.46825
0.468303
0.468356
0.46841
0.468463
0.468463
0.468516
0.46857
0.468623
0.468677
0.468677
0.46873
0.468784
0.468837
0.468891
0.468891
0.468944
0.468998
0.469052
0.469105
0.469105
0.469159
0.469213
0.469267
0.469321
0.469321
0.469375
0.469429
0.469483
0.469537
0.469537
0.469591
0.469645
0.469699
0.469753
0.469753
0.469807
0.469861
0.469916
0.46997
0.46997
0.470024
0.470079
0.470133
0.470187
0.470187
0.470242
0.470296
0.470351
0.470405
0.470405
0.47046
0.470515
0.470569
0.470624
0.470624
0.470679
0.470733
0.470788
0.470843
0.470843
0.470898
0.470953
0.471008
0.471063
0.471063
0.471118
0.471173
0.471228
0.471283
0.471283
0.471338
0.471393
0.471448
0.471504
0.471504
0.471559
0.471614
0.471669
0.471725
0.471725
0.47178
0.471836
0.471891
0.471947
0.471947
0.472002
0.472058
0.472113
0.472169
0.472169
0.472225
0.47228
0.472336
0.472392
0.472392
0.472448
0.472504
0.472559
0.472615
0.472615
0.472671
0.472727
0.472783
0.472839
0.472839
0.472895
0.472952
0.473008
0.473064
0.473064
0.47312
0.473176
0.473233
0.473289
0.473289
0.473345
0.473402
0.473458
0.473515
0.473515
0.473571
0.473628
0.473684
0.473741
0.473741
0.473798
0.473854
0.473911
0.473968
0.473968
0.474024
0.474081
0.474138
0.474195
0.474195
0.474252
0.474309
0.474366
0.474423
0.474423
0.47448
0.474537
0.474594
0.474651
0.474651
0.474708
0.474766
0.474823
0.47488
0.47488
0.474938
0.474995
0.475052
0.47511
0.47511
0.475167
0.475225
0.475282
0.47534
0.47534
0.475397
0.475455
0.475513
0.47557
0.47557
0.475628
0.475686
0.475744
0.475802
0.475802
0.475859
0.475917
0.475975
0.476033
0.476033
0.476091
0.476149
0.476207
0.476266
0.476266
0.476324
0.476382
0.47644
0.476498
0.476498
0.476557
0.476615
0.476673
0.476732
0.476732
0.47679
0.476849
0.476907
0.476966
0.476966
0.477024
0.477083
0.477142
0.4772
0.4772
0.477259
0.477318
0.477376
0.477435
0.477435
0.477494
0.477553
0.477612
0.477671
0.477671
0.47773
0.477789
0.477848
0.477907
0.477907
0.477966
0.478025
0.478085
0.478144
0.478144
0.478203
0.478262
0.478322
0.478381
0.478381
0.47844
0.4785
0.478559
0.478619
0.478619
0.478678
0.478738
0.478798
0.478857
0.478857
0.478917
0.478977
0.479036
0.479096
0.479096
0.479156
0.479216
0.479276
0.479336
0.479336
0.479396
0.479456
0.479516
0.479576
0.479576
0.479636
0.479696
0.479756
0.479816
0.479816
0.479877
0.479937
0.479997
0.480058
0.480058
0.480118
0.480178
0.480239
0.480299
0.480299
0.48036
0.48042
0.480481
0.480542
0.480542
0.480602
0.480663
0.480724
0.480785
0.480785
0.480845
0.480906
0.480967
0.481028
0.481028
0.481089
0.48115
0.481211
0.481272
0.481272
0.481333
0.481394
0.481455
0.481516
0.481516
0.481578
0.481639
0.4817
0.481762
0.481762
0.481823
0.481884
0.481946
0.482007
0.482007
0.482069
0.48213
0.482192
0.482254
0.482254
0.482315
0.482377
0.482439
0.4825
0.4825
0.482562
0.482624
0.482686
0.482748
0.482748
0.48281
0.482872
0.482934
0.482996
0.482996
0.483058
0.48312
0.483182
0.483244
0.483244
0.483306
0.483369
0.483431
0.483493
0.483493
0.483556
0.483618
0.48368
0.483743
0.483743
0.483805
0.483868
0.48393
0.483993
0.483993
0.484056
0.484118
0.484181
0.484244
0.484244
0.484307
0.484369
0.484432
0.484495
0.484495
0.484558
0.484621
0.484684
0.484747
0.484747
0.48481
0.484873
0.484936
0.484999
0.484999
0.485063
0.485126
0.485189
0.485252
0.485252
0.485316
0.485379
0.485443
0.485506
0.485506
0.485569
0.485633
0.485697
0.48576
0.48576
0.485824
0.485887
0.485951
0.486015
0.486015
0.486079
0.486142
0.486206
0.48627
0.48627
0.486334
0.486398
0.486462
0.486526
0.486526
0.48659
0.486654
0.486718
0.486782
0.486782
0.486847
0.486911
0.486975
0.48704
0.48704
0.487104
0.487168
0.487233
0.487297
0.487297
0.487362
0.487426
0.487491
0.487555
0.487555
0.48762
0.487685
0.487749
0.487814
0.487814
0.487879
0.487944
0.488008
0.488073
0.488073
0.488138
0.488203
0.488268
0.488333
0.488333
0.488398
0.488463
0.488528
0.488594
0.488594
0.488659
0.488724
0.488789
0.488855
0.488855
0.48892
0.488985
0.489051
0.489116
0.489116
0.489182
0.489247
0.489313
0.489378
0.489378
0.489444
0.48951
0.489575
0.489641
0.489641
0.489707
0.489773
0.489839
0.489904
0.489904
0.48997
0.490036
0.490102
0.490168
0.490168
0.490234
0.4903
0.490367
0.490433
0.490433
0.490499
0.490565
0.490631
0.490698
0.490698
0.490764
0.490831
0.490897
0.490963
0.490963
0.49103
0.491096
0.491163
0.49123
0.49123
0.491296
0.491363
0.49143
0.491496
0.491496
0.491563
0.49163
0.491697
0.491764
0.491764
0.491831
0.491898
0.491965
0.492032
0.492032
0.492099
0.492166
0.492233
0.4923
0.4923
0.492367
0.492435
0.492502
0.492569
0.492569
0.492637
0.492704
0.492771
0.492839
0.492839
0.492906
0.492974
0.493042
0.493109
0.493109
0.493177
0.493245
0.493312
0.49338
0.49338
0.493448
0.493516
0.493584
0.493651
0.493651
0.493719
0.493787
0.493855
0.493923
0.493923
0.493992
0.49406
0.494128
0.494196
0.494196
0.494264
0.494333
0.494401
0.494469
0.494469
0.494538
0.494606
0.494674
0.494743
0.494743
0.494811
0.49488
0.494949
0.495017
0.495017
0.495086
0.495155
0.495223
0.495292
0.495292
0.495361
0.49543
0.495499
0.495568
0.495568
0.495637
0.495706
0.495775
0.495844
0.495844
0.495913
0.495982
0.496051
0.49612
0.49612
0.49619
0.496259
0.496328
0.496398
0.496398
0.496467
0.496537
0.496606
0.496676
0.496676
0.496745
0.496815
0.496884
0.496954
0.496954
0.497024
0.497093
0.497163
0.497233
0.497233
0.497303
0.497373
0.497443
0.497513
0.497513
0.497583
0.497653
0.497723
0.497793
0.497793
0.497863
0.497933
0.498003
0.498074
0.498074
0.498144
0.498214
0.498285
0.498355
0.498355
0.498425
0.498496
0.498566
0.498637
0.498637
0.498708
0.498778
0.498849
0.49892
0.49892
0.49899
0.499061
0.499132
0.499203
0.499203
0.499274
0.499345
0.499415
0.499486
0.499486
0.499557
0.499629
0.4997
0.499771
0.499771
0.499842
0.499913
0.499984
0.500056
0.500056
0.500127
0.500198
0.50027
0.500341
0.500341
0.500413
0.500484
0.500556
0.500627
0.500627
0.500699
0.500771
0.500842
0.500914
0.500914
0.500986
0.501058
0.501129
0.501201
0.501201
0.501273
0.501345
0.501417
0.501489
0.501489
0.501561
0.501633
0.501706
0.501778
0.501778
0.50185
0.501922
0.501995
0.502067
0.502067
0.502139
0.502212
0.502284
0.502357
0.502357
0.502429
0.502502
0.502574
0.502647
0.502647
0.50272
0.502792
0.502865
0.502938
0.502938
0.503011
0.503083
0.503156
0.503229
0.503229
0.503302
0.503375
0.503448
0.503521
0.503521
0.503594
0.503668
0.503741
0.503814
0.503814
0.503887
0.503961
0.504034
0.504107
0.504107
0.504181
0.504254
0.504328
0.504401
0.504401
0.504475
0.504548
0.504622
0.504696
0.504696
0.504769
0.504843
0.504917
0.504991
0.504991
0.505065
0.505139
0.505212
0.505286
0.505286
0.50536
0.505434
0.505509
0.505583
0.505583
0.505657
0.505731
0.505805
0.50588
0.50588
0.505954
0.506028
0.506103
0.506177
0.506177
0.506252
0.506326
0.506401
0.506475
0.506475
0.50655
0.506624
0.506699
0.506774
0.506774
0.506849
0.506924
0.506998
0.507073
0.507073
0.507148
0.507223
0.507298
0.507373
0.507373
0.507448
0.507523
0.507598
0.507674
0.507674
0.507749
0.507824
0.507899
0.507975
0.507975
0.50805
0.508126
0.508201
0.508277
0.508277
0.508352
0.508428
0.508503
0.508579
0.508579
0.508655
0.50873
0.508806
0.508882
0.508882
0.508958
0.509034
0.509109
0.509185
0.509185
0.509261
0.509337
0.509414
0.50949
0.50949
0.509566
0.509642
0.509718
0.509794
0.509794
0.509871
0.509947
0.510023
0.5101
0.5101
0.510176
0.510253
0.510329
0.510406
0.510406
0.510482
0.510559
0.510636
0.510712
0.510712
0.510789
0.510866
0.510943
0.51102
0.51102
0.511097
0.511174
0.511251
0.511328
0.511328
0.511405
0.511482
0.511559
0.511636
0.511636
0.511713
0.51179
0.511868
0.511945
0.511945
0.512022
0.5121
0.512177
0.512255
0.512255
0.512332
0.51241
0.512487
0.512565
0.512565
0.512643
0.51272
0.512798
0.512876
0.512876
0.512954
0.513032
0.51311
0.513188
0.513188
0.513266
0.513344
0.513422
0.5135
0.5135
0.513578
0.513656
0.513734
0.513813
0.513813
0.513891
0.513969
0.514047
0.514126
0.514126
0.514204
0.514283
0.514361
0.51444
0.51444
0.514519
0.514597
0.514676
0.514755
0.514755
0.514833
0.514912
0.514991
0.51507
0.51507
0.515149
0.515228
0.515307
0.515386
0.515386
0.515465
0.515544
0.515623
0.515702
0.515702
0.515781
0.515861
0.51594
0.516019
0.516019
0.516099
0.516178
0.516258
0.516337
0.516337
0.516417
0.516496
0.516576
0.516655
0.516655
0.516735
0.516815
0.516895
0.516974
0.516974
0.517054
0.517134
0.517214
0.517294
0.517294
0.517374
0.517454
0.517534
0.517614
0.517614
0.517694
0.517775
0.517855
0.517935
0.517935
0.518015
0.518096
0.518176
0.518257
0.518257
0.518337
0.518418
0.518498
0.518579
0.518579
0.518659
0.51874
0.518821
0.518902
0.518902
0.518982
0.519063
0.519144
0.519225
0.519225
0.519306
0.519387
0.519468
0.519549
0.519549
0.51963
0.519711
0.519792
0.519874
0.519874
0.519955
0.520036
0.520117
0.520199
0.520199
0.52028
0.520362
0.520443
0.520525
0.520525
0.520606
0.520688
0.52077
0.520851
0.520851
0.520933
0.521015
0.521097
0.521178
0.521178
0.52126
0.521342
0.521424
0.521506
0.521506
0.521588
0.52167
0.521752
0.521835
0.521835
0.521917
0.521999
0.522081
0.522164
0.522164
0.522246
0.522328
0.522411
0.522493
0.522493
0.522576
0.522659
0.522741
0.522824
0.522824
0.522906
0.522989
0.523072
0.523155
0.523155
0.523238
0.52332
0.523403
0.523486
0.523486
0.523569
0.523652
0.523735
0.523819
0.523819
0.523902
0.523985
0.524068
0.524151
0.524151
0.524235
0.524318
0.524402
0.524485
0.524485
0.524568
0.524652
0.524736
0.524819
0.524819
0.524903
0.524986
0.52507
0.525154
0.525154
0.525238
0.525322
0.525405
0.525489
0.525489
0.525573
0.525657
0.525741
0.525825
0.525825
0.52591
0.525994
0.526078
0.526162
0.526162
0.526246
0.526331
0.526415
0.5265
0.5265
0.526584
0.526669
0.526753
0.526838
0.526838
0.526922
0.527007
0.527092
0.527176
0.527176
0.527261
0.527346
0.527431
0.527516
0.527516
0.5276
0.527685
0.52777
0.527856
0.527856
0.527941
0.528026
0.528111
0.528196
0.528196
0.528281
0.528367
0.528452
0.528537
0.528537
0.528623
0.528708
0.528794
0.528879
0.528879
0.528965
0.52905
0.529136
0.529222
0.529222
0.529308
0.529393
0.529479
0.529565
0.529565
0.529651
0.529737
0.529823
0.529909
0.529909
0.529995
0.530081
0.530167
0.530253
0.530253
0.53034
0.530426
0.530512
0.530598
0.530598
0.530685
0.530771
0.530858
0.530944
0.530944
0.531031
0.531117
0.531204
0.531291
0.531291
0.531377
0.531464
0.531551
0.531638
0.531638
0.531725
0.531812
0.531899
0.531986
0.531986
0.532073
0.53216
0.532247
0.532334
0.532334
0.532421
0.532508
0.532596
0.532683
0.532683
0.53277
0.532858
0.532945
0.533033
0.533033
0.53312
0.533208
0.533295
0.533383
0.533383
0.533471
0.533559
0.533646
0.533734
0.533734
0.533822
0.53391
0.533998
0.534086
0.534086
0.534174
0.534262
0.53435
0.534438
0.534438
0.534526
0.534615
0.534703
0.534791
0.534791
0.53488
0.534968
0.535056
0.535145
0.535145
0.535233
0.535322
0.535411
0.535499
0.535499
0.535588
0.535677
0.535765
0.535854
0.535854
0.535943
0.536032
0.536121
0.53621
0.53621
0.536299
0.536388
0.536477
0.536566
0.536566
0.536655
0.536745
0.536834
0.536923
0.536923
0.537012
0.537102
0.537191
0.537281
0.537281
0.53737
0.53746
0.537549
0.537639
0.537639
0.537729
0.537819
0.537908
0.537998
0.537998
0.538088
0.538178