<?xml version="1.0"?>
<VTKFile type="UnstructuredGrid" version="0.1" byte_order="LittleEndian">
<UnstructuredGrid>
<Piece NumberOfPoints="5000" NumberOfCells="4000">
<PointData Scalars="Reaction 0">
<DataArray type="Float32" Name="Reaction 0" format="ascii">
0.382482
0.382482
0.382482
0.382482
0.382483
0.382483
0.382483
0.382483
0.382483
0.382483
0.382483
0.382483
0.382484
0.382484
0.382484
0.382484
0.382485
0.382485
0.382486
0.382486
0.382486
0.382487
0.382487
0.382488
0.382488
0.382488
0.382489
0.382489
0.38249
0.382491
0.382491
0.382491
0.382492
0.382493
0.382494
0.382494
0.382495
0.382495
0.382496
0.382497
0.382497
0.382498
0.382499
0.3825
0.382501
0.382501
0.382502
0.382503
0.382504
0.382506
0.382506
0.382507
0.382508
0.382509
0.38251
0.38251
0.382512
0.382513
0.382514
0.382516
0.382516
0.382517
0.382519
0.38252
0.382522
0.382522
0.382523
0.382525
0.382526
0.382528
0.382528
0.38253
0.382531
0.382533
0.382535
0.382535
0.382537
0.382538
0.38254
0.382542
0.382542
0.382544
0.382546
0.382548
0.38255
0.38255
0.382552
0.382554
0.382556
0.382558
0.382558
0.38256
0.382562
0.382564
0.382566
0.382566
0.382569
0.382571
0.382573
0.382576
0.382576
0.382578
0.38258
0.382583
0.382585
0.382585
0.382588
0.38259
0.382593
0.382595
0.382595
0.382598
0.3826
0.382603
0.382606
0.382606
0.382608
0.382611
0.382614
0.382617
0.382617
0.382619
0.382622
0.382625
0.382628
0.382628
0.382631
0.382634
0.382637
0.38264
0.38264
0.382643
0.382646
0.382649
0.382652
0.382652
0.382655
0.382659
0.382662
0.382665
0.382665
0.382668
0.382672
0.382675
0.382678
0.382678
0.382682
0.382685
0.382689
0.382692
0.382692
0.382696
0.382699
0.382703
0.382706
0.382706
0.38271
0.382714
0.382717
0.382721
0.382721
0.382725
0.382728
0.382732
0.382736
0.382736
0.38274
0.382744
0.382748
0.382752
0.382752
0.382756
0.38276
0.382764
0.382768
0.382768
0.382772
0.382776
0.38278
0.382784
0.382784
0.382789
0.382793
0.382797
0.382801
0.382801
0.382806
0.38281
0.382814
0.382819
0.382819
0.382823
0.382828
0.382832
0.382837
0.382837
0.382841
0.382846
0.382851
0.382855
0.382855
0.38286
0.382865
0.382869
0.382874
0.382874
0.382879
0.382884
0.382889
0.382893
0.382893
0.382898
0.382903
0.382908
0.382913
0.382913
0.382918
0.382923
0.382928
0.382934
0.382934
0.382939
0.382944
0.382949
0.382954
0.382954
0.38296
0.382965
0.38297
0.382975
0.382975
0.382981
0.382986
0.382992
0.382997
0.382997
0.383003
0.383008
0.383014
0.383019
0.383019
0.383025
0.383031
0.383036
0.383042
0.383042
0.383048
0.383053
0.383059
0.383065
0.383065
0.383071
0.383077
0.383083
0.383089
0.383089
0.383094
0.3831
0.383106
0.383113
0.383113
0.383119
0.383125
0.383131
0.383137
0.383137
0.383143
0.383149
0.383156
0.383162
0.383162
0.383168
0.383175
0.383181
0.383187
0.383187
0.383194
0.3832
0.383207
0.383213
0.383213
0.38322
0.383226
0.383233
0.38324
0.38324
0.383246
0.383253
0.38326
0.383266
0.383266
0.383273
0.38328
0.383287
0.383294
0.383294
0.383301
0.383307
0.383314
0.383321
0.383321
0.383328
0.383335
0.383342
0.38335
0.38335
0.383357
0.383364
0.383371
0.383378
0.383378
0.383385
0.383393
0.3834
0.383407
0.383407
0.383415
0.383422
0.38343
0.383437
0.383437
0.383444
0.383452
0.383459
0.383467
0.383467
0.383475
0.383482
0.38349
0.383498
0.383498
0.383505
0.383513
0.383521
0.383529
0.383529
0.383536
0.383544
0.383552
0.38356
0.38356
0.383568
0.383576
0.383584
0.383592
0.383592
0.3836
0.383608
0.383616
0.383624
0.383624
0.383633
0.383641
0.383649
0.383657
0.383657
0.383665
0.383674
0.383682
0.383691
0.383691
0.383699
0.383707
0.383716
0.383724
0.383724
0.383733
0.383741
0.38375
0.383759
0.383759
0.383767
0.383776
0.383785
0.383793
0.383793
0.383802
0.383811
0.38382
0.383829
0.383829
0.383837
0.383846
0.383855
0.383864
0.383864
0.383873
0.383882
0.383891
0.3839
0.3839
0.383909
0.383919
0.383928
0.383937
0.383937
0.383946
0.383955
0.383965
0.383974
0.383974
0.383983
0.383993
0.384002
0.384011
0.384011
0.384021
0.38403
0.38404
0.384049
0.384049
0.384059
0.384069
0.384078
0.384088
0.384088
0.384098
0.384107
0.384117
0.384127
0.384127
0.384137
0.384146
0.384156
0.384166
0.384166
0.384176
0.384186
0.384196
0.384206
0.384206
0.384216
0.384226
0.384236
0.384246
0.384246
0.384257
0.384267
0.384277
0.384287
0.384287
0.384297
0.384308
0.384318
0.384328
0.384328
0.384339
0.384349
0.38436
0.38437
0.38437
0.384381
0.384391
0.384402
0.384412
0.384412
0.384423
0.384434
0.384444
0.384455
0.384455
0.384466
0.384476
0.384487
0.384498
0.384498
0.384509
0.38452
0.384531
0.384542
0.384542
0.384553
0.384564
0.384575
0.384586
0.384586
0.384597
0.384608
0.384619
0.38463
0.38463
0.384641
0.384653
0.384664
0.384675
0.384675
0.384687
0.384698
0.384709
0.384721
0.384721
0.384732
0.384744
0.384755
0.384767
0.384767
0.384778
0.38479
0.384801
0.384813
0.384813
0.384825
0.384836
0.384848
0.38486
0.38486
0.384872
0.384883
0.384895
0.384907
0.384907
0.384919
0.384931
0.384943
0.384955
0.384955
0.384967
0.384979
0.384991
0.385003
0.385003
0.385015
0.385027
0.38504
0.385052
0.385052
0.385064
0.385076
0.385089
0.385101
0.385101
0.385113
0.385126
0.385138
0.385151
0.385151
0.385163
0.385176
0.385188
0.385201
0.385201
0.385213
0.385226
0.385239
0.385251
0.385251
0.385264
0.385277
0.38529
0.385302
0.385302
0.385315
0.385328
0.385341
0.385354
0.385354
0.385367
0.38538
0.385393
0.385406
0.385406
0.385419
0.385432
0.385445
0.385458
0.385458
0.385471
0.385485
0.385498
0.385511
0.385511
0.385524
0.385538
0.385551
0.385565
0.385565
0.385578
0.385591
0.385605
0.385618
0.385618
0.385632
0.385645
0.385659
0.385673
0.385673
0.385686
0.3857
0.385714
0.385727
0.385727
0.385741
0.385755
0.385769
0.385783
0.385783
0.385797
0.38581
0.385824
0.385838
0.385838
0.385852
0.385866
0.38588
0.385894
0.385894
0.385909
0.385923
0.385937
0.385951
0.385951
0.385965
0.38598
0.385994
0.386008
0.386008
0.386023
0.386037
0.386051
0.386066
0.386066
0.38608
0.386095
0.386109
0.386124
0.386124
0.386138
0.386153
0.386168
0.386182
0.386182
0.386197
0.386212
0.386226
0.386241
0.386241
0.386256
0.386271
0.386286
0.386301
0.386301
0.386316
0.386331
0.386346
0.386361
0.386361
0.386376
0.386391
0.386406
0.386421
0.386421
0.386436
0.386451
0.386466
0.386482
0.386482
0.386497
0.386512
0.386528
0.386543
0.386543
0.386558
0.386574
0.386589
0.386605
0.386605
0.38662
0.386636
0.386651
0.386667
0.386667
0.386683
0.386698
0.386714
0.38673
0.38673
0.386745
0.386761
0.386777
0.386793
0.386793
0.386809
0.386825
0.386841
0.386856
0.386856
0.386872
0.386888
0.386904
0.386921
0.386921
0.386937
0.386953
0.386969
0.386985
0.386985
0.387001
0.387018
0.387034
0.38705
0.38705
0.387066
0.387083
0.387099
0.387116
0.387116
0.387132
0.387149
0.387165
0.387182
0.387182
0.387198
0.387215
0.387231
0.387248
0.387248
0.387265
0.387281
0.387298
0.387315
0.387315
0.387332
0.387348
0.387365
0.387382
0.387382
0.387399
0.387416
0.387433
0.38745
0.38745
0.387467
0.387484
0.387501
0.387518
0.387518
0.387535
0.387553
0.38757
0.387587
0.387587
0.387604
0.387622
0.387639
0.387656
0.387656
0.387674
0.387691
0.387708
0.387726
0.387726
0.387743
0.387761
0.387778
0.387796
0.387796
0.387814
0.387831
0.387849
0.387867
0.387867
0.387884
0.387902
0.38792
0.387938
0.387938
0.387956
0.387973
0.387991
0.388009
0.388009
0.388027
0.388045
0.388063
0.388081
0.388081
0.388099
0.388117
0.388136
0.388154
0.388154
0.388172
0.38819
0.388208
0.388227
0.388227
0.388245
0.388263
0.388282
0.3883
0.3883
0.388318
0.388337
0.388355
0.388374
0.388374
0.388392
0.388411
0.38843
0.388448
0.388448
0.388467
0.388486
0.388504
0.388523
0.388523
0.388542
0.388561
0.388579
0.388598
0.388598
0.388617
0.388636
0.388655
0.388674
0.388674
0.388693
0.388712
0.388731
0.38875
0.38875
0.388769
0.388788
0.388808
0.388827
0.388827
0.388846
0.388865
0.388885
0.388904
0.388904
0.388923
0.388943
0.388962
0.388982
0.388982
0.389001
0.389021
0.38904
0.38906
0.38906
0.389079
0.389099
0.389119
0.389138
0.389138
0.389158
0.389178
0.389197
0.389217
0.389217
0.389237
0.389257
0.389277
0.389297
0.389297
0.389317
0.389337
0.389357
0.389377
0.389377
0.389397
0.389417
0.389437
0.389457
0.389457
0.389477
0.389497
0.389518
0.389538
0.389538
0.389558
0.389578
0.389599
0.389619
0.389619
0.38964
0.38966
0.38968
0.389701
0.389701
0.389721
0.389742
0.389763
0.389783
0.389783
0.389804
0.389824
0.389845
0.389866
0.389866
0.389887
0.389907
0.389928
0.389949
0.389949
0.38997
0.389991
0.390012
0.390033
0.390033
0.390054
0.390075
0.390096
0.390117
0.390117
0.390138
0.390159
0.39018
0.390201
0.390201
0.390223
0.390244
0.390265
0.390286
0.390286
0.390308
0.390329
0.390351
0.390372
0.390372
0.390393
0.390415
0.390436
0.390458
0.390458
0.390479
0.390501
0.390523
0.390544
0.390544
0.390566
0.390588
0.39061
0.390631
0.390631
0.390653
0.390675
0.390697
0.390719
0.390719
0.390741
0.390763
0.390784
0.390806
0.390806
0.390829
0.390851
0.390873
0.390895
0.390895
0.390917
0.390939
0.390961
0.390984
0.390984
0.391006
0.391028
0.39105
0.391073
0.391073
0.391095
0.391118
0.39114
0.391163
0.391163
0.391185
0.391208
0.39123
0.391253
0.391253
0.391275
0.391298
0.391321
0.391343
0.391343
0.391366
0.391389
0.391412
0.391434
0.391434
0.391457
0.39148
0.391503
0.391526
0.391526
0.391549
0.391572
0.391595
0.391618
0.391618
0.391641
0.391664
0.391687
0.391711
0.391711
0.391734
0.391757
0.39178
0.391803
0.391803
0.391827
0.39185
0.391874
0.391897
0.391897
0.39192
0.391944
0.391967
0.391991
0.391991
0.392014
0.392038
0.392062
0.392085
0.392085
0.392109
0.392133
0.392156
0.39218
0.39218
0.392204
0.392228
0.392251
0.392275
0.392275
0.392299
0.392323
0.392347
0.392371
0.392371
0.392395
0.392419
0.392443
0.392467
0.392467
0.392491
0.392516
0.39254
0.392564
0.392564
0.392588
0.392612
0.392637
0.392661
0.392661
0.392685
0.39271
0.392734
0.392759
0.392759
0.392783
0.392808
0.392832
0.392857
0.392857
0.392881
0.392906
0.392931
0.392955
0.392955
0.39298
0.393005
0.39303
0.393054
0.393054
0.393079
0.393104
0.393129
0.393154
0.393154
0.393179
0.393204
0.393229
0.393254
0.393254
0.393279
0.393304
0.393329
0.393354
0.393354
0.393379
0.393405
0.39343
0.393455
0.393455
0.39348
0.393506
0.393531
0.393556
0.393556
0.393582
0.393607
0.393633
0.393658
0.393658
0.393684
0.393709
0.393735
0.393761
0.393761
0.393786
0.393812
0.393838
0.393863
0.393863
0.393889
0.393915
0.393941
0.393967
0.393967
0.393992
0.394018
0.394044
0.39407
0.39407
0.394096
0.394122
0.394148
0.394174
0.394174
0.3942
0.394227
0.394253
0.394279
0.394279
0.394305
0.394331
0.394358
0.394384
0.394384
0.39441
0.394437
0.394463
0.39449
0.39449
0.394516
0.394543
0.394569
0.394596
0.394596
0.394622
0.394649
0.394675
0.394702
0.394702
0.394729
0.394755
0.394782
0.394809
0.394809
0.394836
0.394863
0.39489
0.394916
0.394916
0.394943
0.39497
0.394997
0.395024
0.395024
0.395051
0.395078
0.395105
0.395133
0.395133
0.39516
0.395187
0.395214
0.395241
0.395241
0.395269
0.395296
0.395323
0.395351
0.395351
0.395378
0.395405
0.395433
0.39546
0.39546
0.395488
0.395515
0.395543
0.395571
0.395571
0.395598
0.395626
0.395654
0.395681
0.395681
0.395709
0.395737
0.395765
0.395792
0.395792
0.39582
0.395848
0.395876
0.395904
0.395904
0.395932
0.39596
0.395988
0.396016
0.396016
0.396044
0.396072
0.3961
0.396129
0.396129
0.396157
0.396185
0.396213
0.396242
0.396242
0.39627
0.396298
0.396327
0.396355
0.396355
0.396383
0.396412
0.39644
0.396469
0.396469
0.396498
0.396526
0.396555
0.396583
0.396583
0.396612
0.396641
0.396669
0.396698
0.396698
0.396727
0.396756
0.396785
0.396814
0.396814
0.396842
0.396871
0.3969
0.396929
0.396929
0.396958
0.396987
0.397016
0.397046
0.397046
0.397075
0.397104
0.397133
0.397162
0.397162
0.397192
0.397221
0.39725
0.39728
0.39728
0.397309
0.397338
0.397368
0.397397
0.397397
0.397427
0.397456
0.397486
0.397515
0.397515
0.397545
0.397575
0.397604
0.397634
0.397634
0.397664
0.397693
0.397723
0.397753
0.397753
0.397783
0.397813
0.397843
0.397872
0.397872
0.397902
0.397932
0.397962
0.397992
0.397992
0.398022
0.398053
0.398083
0.398113
0.398113
0.398143
0.398173
0.398204
0.398234
0.398234
0.398264
0.398294
0.398325
0.398355
0.398355
0.398386
0.398416
0.398447
0.398477
0.398477
0.398508
0.398538
0.398569
0.398599
0.398599
0.39863
0.398661
0.398691
0.398722
0.398722
0.398753
0.398784
0.398814
0.398845
0.398845
0.398876
0.398907
0.398938
0.398969
0.398969
0.399
0.399031
0.399062
0.399093
0.399093
0.399124
0.399156
0.399187
0.399218
0.399218
0.399249
0.39928
0.399312
0.399343
0.399343
0.399374
0.399406
0.399437
0.399469
0.399469
0.3995
0.399532
0.399563
0.399595
0.399595
0.399626
0.399658
0.399689
0.399721
0.399721
0.399753
0.399785
0.399816
0.399848
0.399848
0.39988
0.399912
0.399944
0.399976
0.399976
0.400007
0.400039
0.400071
0.400103
0.400103
0.400135
0.400168
0.4002
0.400232
0.400232
0.400264
0.400296
0.400328
0.400361
0.400361
0.400393
0.400425
0.400458
0.40049
0.40049
0.400522
0.400555
0.400587
0.40062
0.40062
0.400652
0.400685
0.400717
0.40075
0.40075
0.400783
0.400815
0.400848
0.400881
0.400881
0.400913
0.400946
0.400979
0.401012
0.401012
0.401045
0.401078
0.401111
0.401143
0.401143
0.401176
0.401209
0.401242
0.401276
0.401276
0.401309
0.401342
0.401375
0.401408
0.401408
0.401441
0.401475
0.401508
0.401541
0.401541
0.401574
0.401608
0.401641
0.401675
0.401675
0.401708
0.401742
0.401775
0.401809
0.401809
0.401842
0.401876
0.401909
0.401943
0.401943
0.401977
0.40201
0.402044
0.402078
0.402078
0.402112
0.402146
0.402179
0.402213
0.402213
0.402247
0.402281
0.402315
0.402349
0.402349
0.402383
0.402417
0.402451
0.402485
0.402485
0.40252
0.402554
0.402588
0.402622
0.402622
0.402656
0.402691
0.402725
0.402759
0.402759
0.402794
0.402828
0.402863
0.402897
0.402897
0.402932
0.402966
0.403001
0.403035
0.403035
0.40307
0.403105
0.403139
0.403174
0.403174
0.403209
0.403243
0.403278
0.403313
0.403313
0.403348
0.403383
0.403418
0.403453
0.403453
0.403488
0.403523
0.403558
0.403593
0.403593
0.403628
0.403663
0.403698
0.403733
0.403733
0.403768
0.403804
0.403839
0.403874
0.403874
0.403909
0.403945
0.40398
0.404015
0.404015
0.404051
0.404086
0.404122
0.404157
0.404157
0.404193
0.404228
0.404264
0.4043
0.4043
0.404335
0.404371
0.404407
0.404443
0.404443
0.404478
0.404514
0.40455
0.404586
0.404586
0.404622
0.404658
0.404694
0.40473
0.40473
0.404766
0.404802
0.404838
0.404874
0.404874
0.40491
0.404946
0.404982
0.405019
0.405019
0.405055
0.405091
0.405127
0.405164
0.405164
0.4052
0.405236
0.405273
0.405309
0.405309
0.405346
0.405382
0.405419
0.405455
0.405455
0.405492
0.405529
0.405565
0.405602
0.405602
0.405639
0.405675
0.405712
0.405749
0.405749
0.405786
0.405823
0.40586
0.405896
0.405896
0.405933
0.40597
0.406007
0.406044
0.406044
0.406082
0.406119
0.406156
0.406193
0.406193
0.40623
0.406267
0.406304
0.406342
0.406342
0.406379
0.406416
0.406454
0.406491
0.406491
0.406529
0.406566
0.406603
0.406641
0.406641
0.406678
0.406716
0.406754
0.406791
0.406791
0.406829
0.406867
0.406904
0.406942
0.406942
0.40698
0.407018
0.407055
0.407093
0.407093
0.407131
0.407169
0.407207
0.407245
0.407245
0.407283
0.407321
0.407359
0.407397
0.407397
0.407435
0.407473
0.407511
0.40755
0.40755
0.407588
0.407626
0.407664
0.407703
0.407703
0.407741
0.40778
0.407818
0.407856
0.407856
0.407895
0.407933
0.407972
0.40801
0.40801
0.408049
0.408088
0.408126
0.408165
0.408165
0.408204
0.408242
0.408281
0.40832
0.40832
0.408359
0.408397
0.408436
0.408475
0.408475
0.408514
0.408553
0.408592
0.408631
0.408631
0.40867
0.408709
0.408748
0.408788
0.408788
0.408827
0.408866
0.408905
0.408944
0.408944
0.408984
0.409023
0.409062
0.409102
0.409102
0.409141
0.40918
0.40922
0.409259
0.409259
0.409299
0.409338
0.409378
0.409418
0.409418
0.409457
0.409497
0.409537
0.409576
0.409576
0.409616
0.409656
0.409696
0.409735
0.409735
0.409775
0.409815
0.409855
0.409895
0.409895
0.409935
0.409975
0.410015
0.410055
0.410055
0.410095
0.410135
0.410176
0.410216
0.410216
0.410256
0.410296
0.410337
0.410377
0.410377
0.410417
0.410458
0.410498
0.410538
0.410538
0.410579
0.410619
0.41066
0.4107
0.4107
0.410741
0.410781
0.410822
0.410863
0.410863
0.410903
0.410944
0.410985
0.411026
0.411026
0.411066
0.411107
0.411148
0.411189
0.411189
0.41123
0.411271
0.411312
0.411353
0.411353
0.411394
0.411435
0.411476
0.411517
0.411517
0.411558
0.411599
0.411641
0.411682
0.411682
0.411723
0.411764
0.411806
0.411847
0.411847
0.411889
0.41193
0.411971
0.412013
0.412013
0.412054
0.412096
0.412137
0.412179
0.412179
0.412221
0.412262
0.412304
0.412346
0.412346
0.412387
0.412429
0.412471
0.412513
0.412513
0.412555
0.412597
0.412638
0.41268
0.41268
0.412722
0.412764
0.412806
0.412848
0.412848
0.41289
0.412933
0.412975
0.413017
0.413017
0.413059
0.413101
0.413144
0.413186
0.413186
0.413228
0.413271
0.413313
0.413355
0.413355
0.413398
0.41344
0.413483
0.413525
0.413525
0.413568
0.41361
0.413653
0.413696
0.413696
0.413738
0.413781
0.413824
0.413866
0.413866
0.413909
0.413952
0.413995
0.414038
0.414038
0.414081
0.414124
0.414167
0.41421
0.41421
0.414253
0.414296
0.414339
0.414382
0.414382
0.414425
0.414468
0.414511
0.414555
0.414555
0.414598
0.414641
0.414684
0.414728
0.414728
0.414771
0.414815
0.414858
0.414901
0.414901
0.414945
0.414988
0.415032
0.415076
0.415076
0.415119
0.415163
0.415206
0.41525
0.41525
0.415294
0.415338
0.415381
0.415425
0.415425
0.415469
0.415513
0.415557
0.415601
0.415601
0.415645
0.415689
0.415733
0.415777
0.415777
0.415821
0.415865
0.415909
0.415953
0.415953
0.415997
0.416042
0.416086
0.41613
0.41613
0.416174
0.416219
0.416263
0.416308
0.416308
0.416352
0.416396
0.416441
0.416485
0.416485
0.41653
0.416575
0.416619
0.416664
0.416664
0.416708
0.416753
0.416798
0.416843
0.416843
0.416887
0.416932
0.416977
0.417022
0.417022
0.417067
0.417112
0.417157
0.417202
0.417202
0.417247
0.417292
0.417337
0.417382
0.417382
0.417427
0.417472
0.417517
0.417563
0.417563
0.417608
0.417653
0.417698
0.417744
0.417744
0.417789
0.417834
0.41788
0.417925
0.417925
0.417971
0.418016
0.418062
0.418107
0.418107
0.418153
0.418199
0.418244
0.41829
0.41829
0.418336
0.418381
0.418427
0.418473
0.418473
0.418519
0.418565
0.418611
0.418656
0.418656
0.418702
0.418748
0.418794
0.41884
0.41884
0.418886
0.418933
0.418979
0.419025
0.419025
0.419071
0.419117
0.419163
0.41921
0.41921
0.419256
0.419302
0.419349
0.419395
0.419395
0.419442
0.419488
0.419534
0.419581
0.419581
0.419628
0.419674
0.419721
0.419767
0.419767
0.419814
0.419861
0.419907
0.419954
0.419954
0.420001
0.420048
0.420094
0.420141
0.420141
0.420188
0.420235
0.420282
0.420329
0.420329
0.420376
0.420423
0.42047
0.420517
0.420517
0.420564
0.420612
0.420659
0.420706
0.420706
0.420753
0.4208
0.420848
0.420895
0.420895
0.420942
0.42099
0.421037
0.421085
0.421085
0.421132
0.42118
0.421227
0.421275
0.421275
0.421322
0.42137
0.421418
0.421465
0.421465
0.421513
0.421561
0.421608
0.421656
0.421656
0.421704
0.421752
0.4218
0.421848
0.421848
0.421896
0.421944
0.421992
0.42204
0.42204
0.422088
0.422136
0.422184
0.422232
0.422232
0.42228
0.422328
0.422377
0.422425
0.422425
0.422473
0.422522
0.42257
0.422618
0.422618
0.422667
0.422715
0.422764
0.422812
0.422812
0.422861
0.422909
0.422958
0.423006
0.423006
0.423055
0.423104
0.423152
0.423201
0.423201
0.42325
0.423299
0.423348
0.423396
0.423396
0.423445
0.423494
0.423543
0.423592
0.423592
0.423641
0.42369
0.423739
0.423788
0.423788
0.423837
0.423887
0.423936
0.423985
0.423985
0.424034
0.424083
0.424133
0.424182
0.424182
0.424231
0.424281
0.42433
0.42438
0.42438
0.424429
0.424479
0.424528
0.424578
0.424578
0.424627
0.424677
0.424727
0.424776
0.424776
0.424826
0.424876
0.424925
0.424975
0.424975
0.425025
0.425075
0.425125
0.425175
0.425175
0.425225
0.425275
0.425325
0.425375
0.425375
0.425425
0.425475
0.425525
0.425575
0.425575
0.425625
0.425675
0.425726
0.425776
0.425776
0.425826
0.425877
0.425927
0.425977
0.425977
0.426028
0.426078
0.426129
0.426179
0.426179
0.42623
0.42628
0.426331
0.426381
0.426381
0.426432
0.426483
0.426533
0.426584
0.426584
0.426635
0.426686
0.426737
0.426787
0.426787
0.426838
0.426889
0.42694
0.426991
0.426991
0.427042
0.427093
0.427144
0.427195
0.427195
0.427246
0.427298
0.427349
0.4274
0.4274
0.427451
0.427502
0.427554
0.427605
0.427605
0.427656
0.427708
0.427759
0.427811
0.427811
0.427862
0.427914
0.427965
0.428017
0.428017
0.428068
0.42812
0.428172
0.428223
0.428223
0.428275
0.428327
0.428378
0.42843
0.42843
0.428482
0.428534
0.428586
0.428638
0.428638
0.42869
0.428742
0.428794
0.428846
0.428846
0.428898
0.42895
0.429002
0.429054
0.429054
0.429106
0.429158
0.429211
0.429263
0.429263
0.429315
0.429368
0.42942
0.429472
0.429472
0.429525
0.429577
0.42963
0.429682
0.429682
0.429735
0.429787
0.42984
0.429892
0.429892
0.429945
0.429998
0.43005
0.430103
0.430103
0.430156
0.430209
0.430262
0.430314
0.430314
0.430367
0.43042
0.430473
0.430526
0.430526
0.430579
0.430632
0.430685
0.430738
0.430738
0.430792
0.430845
0.430898
0.430951
0.430951
0.431004
0.431058
0.431111
0.431164
0.431164
0.431218
0.431271
0.431324
0.431378
0.431378
0.431431
0.431485
0.431538
0.431592
0.431592
0.431645
0.431699
0.431753
0.431806
0.431806
0.43186
0.431914
0.431968
0.432021
0.432021
0.432075
0.432129
0.432183
0.432237
0.432237
0.432291
0.432345
0.432399
0.432453
0.432453
0.432507
0.432561
0.432615
0.432669
0.432669
0.432724
0.432778
0.432832
0.432886
0.432886
0.432941
0.432995
0.433049
0.433104
0.433104
0.433158
0.433213
0.433267
0.433322
0.433322
0.433376
0.433431
0.433485
0.43354
0.43354
0.433595
0.433649
0.433704
0.433759
0.433759
0.433814
0.433868
0.433923
0.433978
0.433978
0.434033
0.434088
0.434143
0.434198
0.434198
0.434253
0.434308
0.434363
0.434418
0.434418
0.434473
0.434528
0.434584
0.434639
0.434639
0.434694
0.434749
0.434805
0.43486
0.43486
0.434915
0.434971
0.435026
0.435082
0.435082
0.435137
0.435193
0.435248
0.435304
0.435304
0.435359
0.435415
0.435471
0.435526
0.435526
0.435582
0.435638
0.435694
0.435749
0.435749
0.435805
0.435861
0.435917
0.435973
0.435973
0.436029
0.436085
0.436141
0.436197
0.436197
0.436253
0.436309
0.436365
0.436422
0.436422
0.436478
0.436534
0.43659
0.436646
0.436646
0.436703
0.436759
0.436816
0.436872
0.436872
0.436928
0.436985
0.437041
0.437098
0.437098
0.437154
0.437211
0.437268
0.437324
0.437324
0.437381
0.437438
0.437494
0.437551
0.437551
0.437608
0.437665
0.437722
0.437778
0.437778
0.437835
0.437892
0.437949
0.438006
0.438006
0.438063
0.43812
0.438177
0.438235
0.438235
0.438292
0.438349
0.438406
0.438463
0.438463
0.438521
0.438578
0.438635
0.438693
0.438693
0.43875
0.438807
0.438865
0.438922
0.438922
0.43898
0.439037
0.439095
0.439153
0.439153
0.43921
0.439268
0.439326
0.439383
0.439383
0.439441
0.439499
0.439557
0.439614
0.439614
0.439672
0.43973
0.439788
0.439846
0.439846
0.439904
0.439962
0.44002
0.440078
0.440078
0.440136
0.440194
0.440253
0.440311
0.440311
0.440369
0.440427
0.440485
0.440544
0.440544
0.440602
0.44066
0.440719
0.440777
0.440777
0.440836
0.440894
0.440953
0.441011
0.441011
0.44107
0.441128
0.441187
0.441246
0.441246
0.441304
0.441363
0.441422
0.441481
0.441481
0.44154
0.441598
0.441657
0.441716
0.441716
0.441775
0.441834
0.441893
0.441952
0.441952
0.442011
0.44207
0.442129
0.442188
0.442188
0.442248
0.442307
0.442366
0.442425
0.442425
0.442485
0.442544
0.442603
0.442663
0.442663
0.442722
0.442782
0.442841
0.442901
0.442901
0.44296
0.44302
0.443079
0.443139
0.443139
0.443198
0.443258
0.443318
0.443378
0.443378
0.443437
0.443497
0.443557
0.443617
0.443617
0.443677
0.443737
0.443797
0.443857
0.443857
0.443917
0.443977
0.444037
0.444097
0.444097
0.444157
0.444217
0.444277
0.444337
0.444337
0.444398
0.444458
0.444518
0.444579
0.444579
0.444639
0.444699
0.44476
0.44482
0.44482
0.444881
0.444941
0.445002
0.445062
0.445062
0.445123
0.445184
0.445244
0.445305
0.445305
0.445366
0.445426
0.445487
0.445548
0.445548
0.445609
0.44567
0.445731
0.445792
0.445792
0.445853
0.445914
0.445975
0.446036
0.446036
0.446097
0.446158
0.446219
0.44628
0.44628
0.446341
0.446403
0.446464
0.446525
0.446525
0.446586
0.446648
0.446709
0.446771
0.446771
0.446832
0.446894
0.446955
0.447017
0.447017
0.447078
0.44714
0.447201
0.447263
0.447263
0.447325
0.447386
0.447448
0.44751
0.44751
0.447572
0.447634
0.447695
0.447757
0.447757
0.447819
0.447881
0.447943
0.448005
0.448005
0.448067
0.448129
0.448191
0.448254
0.448254
0.448316
0.448378
0.44844
0.448502
0.448502
0.448565
0.448627
0.448689
0.448752
0.448752
0.448814
0.448876
0.448939
0.449001
0.449001
0.449064
0.449126
0.449189
0.449252
0.449252
0.449314
0.449377
0.44944
0.449502
0.449502
0.449565
0.449628
0.449691
0.449754
0.449754
0.449817
0.449879
0.449942
0.450005
0.450005
0.450068
0.450131
0.450194
0.450258
0.450258
0.450321
0.450384
0.450447
0.45051
0.45051
0.450573
0.450637
0.4507
0.450763
0.450763
0.450827
0.45089
0.450954
0.451017
0.451017
0.45108
0.451144
0.451208
0.451271
0.451271
0.451335
0.451398
0.451462
0.451526
0.451526
0.451589
0.451653
0.451717
0.451781
0.451781
0.451845
0.451908
0.451972
0.452036
0.452036
0.4521
0.452164
0.452228
0.452292
0.452292
0.452356
0.452421
0.452485
0.452549
0.452549
0.452613
0.452677
0.452742
0.452806
0.452806
0.45287
0.452935
0.452999
0.453063
0.453063
0.453128
0.453192
0.453257
0.453321
0.453321
0.453386
0.45345
0.453515
0.45358
0.45358
0.453644
0.453709
0.453774
0.453839
0.453839
0.453903
0.453968
0.454033
0.454098
0.454098
0.454163
0.454228
0.454293
0.454358
0.454358
0.454423
0.454488
0.454553
0.454618
0.454618
0.454684
0.454749
0.454814
0.454879
0.454879
0.454944
0.45501
0.455075
0.455141
0.455141
0.455206
0.455271
0.455337
0.455402
0.455402
0.455468
0.455533
0.455599
0.455665
0.455665
0.45573
0.455796
0.455862
0.455927
0.455927
0.455993
0.456059
0.456125
0.456191
0.456191
0.456257
0.456323
0.456388
0.456454
0.456454
0.45652
0.456587
0.456653
0.456719
0.456719
0.456785
0.456851
0.456917
0.456983
0.456983
0.45705
0.457116
0.457182
0.457249
0.457249
0.457315
0.457381
0.457448
0.457514
0.457514
0.457581
0.457647
0.457714
0.457781
0.457781
0.457847
0.457914
0.45798
0.458047
0.458047
0.458114
0.458181
0.458248
0.458314
0.458314
0.458381
0.458448
0.458515
0.458582
0.458582
0.458649
0.458716
0.458783
0.45885
0.45885
0.458917
0.458984
0.459052
0.459119
0.459119
0.459186
0.459253
0.45932
0.459388
0.459388
0.459455
0.459523
0.45959
0.459657
0.459657
0.459725
0.459792
0.45986
0.459927
0.459927
0.459995
0.460063
0.46013
0.460198
0.460198
0.460266
0.460333
0.460401
0.460469
0.460469
0.460537
0.460605
0.460673
0.460741
0.460741
0.460808
0.460876
0.460944
0.461013
0.461013
0.461081
0.461149
0.461217
0.461285
0.461285
0.461353
0.461421
0.46149
0.461558
0.461558
0.461626
0.461695
0.461763
0.461831
0.461831
0.4619
0.461968
0.462037
0.462105
0.462105
0.462174
0.462243
0.462311
0.46238
0.46238
0.462449
0.462517
0.462586
0.462655
0.462655
0.462724
0.462792
0.462861
0.46293
0.46293
0.462999
0.463068
0.463137
0.463206
0.463206
0.463275
0.463344
0.463413
0.463483
0.463483
0.463552
0.463621
0.46369
0.463759
0.463759
0.463829
0.463898
0.463967
0.464037
0.464037
0.464106
0.464176
0.464245
0.464315
0.464315
0.464384
0.464454
0.464523
0.464593
0.464593
0.464663
0.464732
0.464802
0.464872
0.464872
0.464942
0.465011
0.465081
0.465151
0.465151
0.465221
0.465291
0.465361
0.465431
0.465431
0.465501
0.465571
0.465641
0.465711
0.465711
0.465781
0.465852
0.465922
0.465992
0.465992
0.466062
0.466133
0.466203
0.466273
0.466273
0.466344
0.466414
0.466485
0.466555
0.466555
0.466626
0.466696
0.466767
0.466837
0.466837
0.466908
0.466979
0.467049
0.46712
0.46712
0.467191
0.467262
0.467333
0.467403
0.467403
0.467474
0.467545
0.467616
0.467687
0.467687
0.467758
0.467829
0.4679
0.467971
0.467971
0.468042
0.468114
0.468185
0.468256
0.468256
0.468327
0.468399
0.46847
0.468541
0.468541
0.468613
0.468684
0.468755
0.468827
0.468827
0.468898
0.46897
0.469042
0.469113
0.469113
0.469185
0.469256
0.469328
0.4694
0.4694
0.469472
0.469543
0.469615
0.469687
0.469687
0.469759
0.469831
0.469903
0.469975
0.469975
0.470047
0.470119
0.470191
0.470263
0.470263
0.470335
0.470407
0.470479
0.470551
0.470551
0.470624
0.470696
0.470768
0.470841
0.470841
0.470913
0.470985
0.471058
0.47113
0.47113
0.471203
0.471275
0.471348
0.47142
0.47142
0.471493
0.471566
0.471638
0.471711
0.471711
0.471784
0.471857
0.471929
0.472002
0.472002
0.472075
0.472148
0.472221
0.472294
0.472294
0.472367
0.47244
0.472513
0.472586
0.472586
0.472659
0.472732
0.472805
0.472878
0.472878
0.472952
0.473025
0.473098
0.473172
0.473172
0.473245
0.473318
0.473392
0.473465
0.473465
0.473539
0.473612
0.473686
0.473759
0.473759
0.473833
0.473906
0.47398
0.474054
0.474054
0.474128
0.474201
0.474275
0.474349
0.474349
0.474423
0.474497
0.47457
0.474644
0.474644
0.474718
0.474792
0.474866
0.47494
0.47494
0.475015
0.475089
0.475163
0.475237
0.475237
0.475311
0.475386
0.47546
0.475534
0.475534
0.475608
0.475683
0.475757
0.475832
0.475832
0.475906
0.475981
0.476055
0.47613
0.47613
0.476204
0.476279
0.476354
0.476428
0.476428
0.476503
0.476578
0.476653
0.476727
0.476727
0.476802
0.476877
0.476952
0.477027
0.477027
0.477102
0.477177
0.477252
0.477327
0.477327
0.477402
0.477477
0.477552
0.477627
0.477627
0.477703
0.477778
0.477853
0.477928
0.477928
0.478004
0.478079
0.478155
0.47823
0.47823
0.478305
0.478381
0.478456
0.478532
0.478532
0.478608
0.478683
0.478759
0.478835
0.478835
0.47891
0.478986
0.479062
0.479138
0.479138
0.479213
0.479289
0.479365
0.479441
0.479441
0.479517
0.479593
0.479669
0.479745
0.479745
0.479821
0.479897
0.479973
0.48005
0.48005
0.480126
0.480202
0.480278
0.480355
0.480355
0.480431
0.480507
0.480584
0.48066
0.48066
0.480737
0.480813
0.48089
0.480966
0.480966
0.481043
0.481119
0.481196
0.481273
0.481273
0.481349
0.481426
0.481503
0.48158
0.48158
0.481657
0.481734
0.48181
0.481887
0.481887
0.481964
0.482041
0.482118
0.482195
0.482195
0.482272
0.48235
0.482427
0.482504
0.482504
0.482581
0.482658
0.482736
0.482813
0.482813
0.48289
0.482968
0.483045
0.483122
0.483122
0.4832
0.483277
0.483355
0.483432
0.483432
0.48351
0.483588
0.483665
0.483743
0.483743
0.483821
0.483898
0.483976
0.484054
0.484054
0.484132
0.48421
0.484288
0.484366
0.484366
0.484444
0.484522
0.4846
0.484678
0.484678
0.484756
0.484834
0.484912
0.48499
0.48499
0.485068
0.485147
0.485225
0.485303
0.485303
0.485382
0.48546
0.485538
0.485617
0.485617
0.485695
0.485774
0.485852
0.485931
0.485931
0.48601
0.486088
0.486167
0.486245
0.486245
0.486324
0.486403
0.486482
0.486561
0.486561
0.486639
0.486718
0.486797
0.486876
0.486876
0.486955