<?xml version="1.0"?>
<VTKFile type="UnstructuredGrid" version="0.1" byte_order="LittleEndian">
<UnstructuredGrid>
<Piece NumberOfPoints="5000" NumberOfCells="4000">
<PointData Scalars="Reaction 0">
<DataArray type="Float32" Name="Reaction 0" format="ascii">
0.439895
0.439895
0.439895
0.439895
0.439895
0.439895
0.439895
0.439895
0.439896
0.439896
0.439896
0.439896
0.439896
0.439897
0.439897
0.439897
0.439898
0.439898
0.439898
0.439899
0.439899
0.439899
0.4399
0.439901
0.439901
0.439901
0.439902
0.439903
0.439903
0.439904
0.439904
0.439905
0.439906
0.439906
0.439907
0.439907
0.439908
0.439909
0.43991
0.439911
0.439911
0.439912
0.439913
0.439914
0.439915
0.439915
0.439917
0.439918
0.439919
0.43992
0.43992
0.439921
0.439923
0.439924
0.439926
0.439926
0.439927
0.439928
0.43993
0.439931
0.439931
0.439933
0.439934
0.439936
0.439938
0.439938
0.439939
0.439941
0.439943
0.439945
0.439945
0.439946
0.439948
0.43995
0.439952
0.439952
0.439954
0.439956
0.439958
0.43996
0.43996
0.439962
0.439964
0.439966
0.439968
0.439968
0.43997
0.439972
0.439975
0.439977
0.439977
0.439979
0.439982
0.439984
0.439986
0.439986
0.439989
0.439991
0.439994
0.439996
0.439996
0.439999
0.440001
0.440004
0.440007
0.440007
0.440009
0.440012
0.440015
0.440017
0.440017
0.44002
0.440023
0.440026
0.440029
0.440029
0.440032
0.440035
0.440038
0.440041
0.440041
0.440044
0.440047
0.44005
0.440053
0.440053
0.440056
0.44006
0.440063
0.440066
0.440066
0.440069
0.440073
0.440076
0.440079
0.440079
0.440083
0.440086
0.44009
0.440093
0.440093
0.440097
0.440101
0.440104
0.440108
0.440108
0.440112
0.440115
0.440119
0.440123
0.440123
0.440127
0.44013
0.440134
0.440138
0.440138
0.440142
0.440146
0.44015
0.440154
0.440154
0.440158
0.440162
0.440166
0.440171
0.440171
0.440175
0.440179
0.440183
0.440188
0.440188
0.440192
0.440196
0.440201
0.440205
0.440205
0.44021
0.440214
0.440219
0.440223
0.440223
0.440228
0.440232
0.440237
0.440242
0.440242
0.440246
0.440251
0.440256
0.440261
0.440261
0.440265
0.44027
0.440275
0.44028
0.44028
0.440285
0.44029
0.440295
0.4403
0.4403
0.440305
0.44031
0.440315
0.440321
0.440321
0.440326
0.440331
0.440336
0.440342
0.440342
0.440347
0.440352
0.440358
0.440363
0.440363
0.440369
0.440374
0.44038
0.440385
0.440385
0.440391
0.440396
0.440402
0.440408
0.440408
0.440413
0.440419
0.440425
0.440431
0.440431
0.440437
0.440442
0.440448
0.440454
0.440454
0.44046
0.440466
0.440472
0.440478
0.440478
0.440484
0.440491
0.440497
0.440503
0.440503
0.440509
0.440515
0.440522
0.440528
0.440528
0.440534
0.440541
0.440547
0.440554
0.440554
0.44056
0.440567
0.440573
0.44058
0.44058
0.440586
0.440593
0.4406
0.440606
0.440606
0.440613
0.44062
0.440627
0.440633
0.440633
0.44064
0.440647
0.440654
0.440661
0.440661
0.440668
0.440675
0.440682
0.440689
0.440689
0.440696
0.440703
0.440711
0.440718
0.440718
0.440725
0.440732
0.44074
0.440747
0.440747
0.440754
0.440762
0.440769
0.440777
0.440777
0.440784
0.440792
0.440799
0.440807
0.440807
0.440814
0.440822
0.44083
0.440837
0.440837
0.440845
0.440853
0.440861
0.440869
0.440869
0.440876
0.440884
0.440892
0.4409
0.4409
0.440908
0.440916
0.440924
0.440932
0.440932
0.440941
0.440949
0.440957
0.440965
0.440965
0.440973
0.440982
0.44099
0.440998
0.440998
0.441007
0.441015
0.441024
0.441032
0.441032
0.441041
0.441049
0.441058
0.441066
0.441066
0.441075
0.441084
0.441092
0.441101
0.441101
0.44111
0.441119
0.441127
0.441136
0.441136
0.441145
0.441154
0.441163
0.441172
0.441172
0.441181
0.44119
0.441199
0.441208
0.441208
0.441217
0.441227
0.441236
0.441245
0.441245
0.441254
0.441264
0.441273
0.441282
0.441282
0.441292
0.441301
0.441311
0.44132
0.44132
0.44133
0.441339
0.441349
0.441358
0.441358
0.441368
0.441378
0.441387
0.441397
0.441397
0.441407
0.441417
0.441427
0.441436
0.441436
0.441446
0.441456
0.441466
0.441476
0.441476
0.441486
0.441496
0.441506
0.441517
0.441517
0.441527
0.441537
0.441547
0.441557
0.441557
0.441568
0.441578
0.441588
0.441599
0.441599
0.441609
0.44162
0.44163
0.441641
0.441641
0.441651
0.441662
0.441672
0.441683
0.441683
0.441694
0.441704
0.441715
0.441726
0.441726
0.441737
0.441747
0.441758
0.441769
0.441769
0.44178
0.441791
0.441802
0.441813
0.441813
0.441824
0.441835
0.441846
0.441857
0.441857
0.441869
0.44188
0.441891
0.441902
0.441902
0.441914
0.441925
0.441936
0.441948
0.441948
0.441959
0.441971
0.441982
0.441994
0.441994
0.442005
0.442017
0.442028
0.44204
0.44204
0.442052
0.442063
0.442075
0.442087
0.442087
0.442099
0.442111
0.442123
0.442134
0.442134
0.442146
0.442158
0.44217
0.442182
0.442182
0.442194
0.442207
0.442219
0.442231
0.442231
0.442243
0.442255
0.442268
0.44228
0.44228
0.442292
0.442305
0.442317
0.442329
0.442329
0.442342
0.442354
0.442367
0.442379
0.442379
0.442392
0.442405
0.442417
0.44243
0.44243
0.442443
0.442455
0.442468
0.442481
0.442481
0.442494
0.442507
0.442519
0.442532
0.442532
0.442545
0.442558
0.442571
0.442584
0.442584
0.442598
0.442611
0.442624
0.442637
0.442637
0.44265
0.442663
0.442677
0.44269
0.44269
0.442703
0.442717
0.44273
0.442744
0.442744
0.442757
0.442771
0.442784
0.442798
0.442798
0.442811
0.442825
0.442839
0.442852
0.442852
0.442866
0.44288
0.442894
0.442907
0.442907
0.442921
0.442935
0.442949
0.442963
0.442963
0.442977
0.442991
0.443005
0.443019
0.443019
0.443033
0.443047
0.443062
0.443076
0.443076
0.44309
0.443104
0.443119
0.443133
0.443133
0.443147
0.443162
0.443176
0.443191
0.443191
0.443205
0.44322
0.443234
0.443249
0.443249
0.443263
0.443278
0.443293
0.443307
0.443307
0.443322
0.443337
0.443352
0.443367
0.443367
0.443382
0.443396
0.443411
0.443426
0.443426
0.443441
0.443456
0.443471
0.443487
0.443487
0.443502
0.443517
0.443532
0.443547
0.443547
0.443563
0.443578
0.443593
0.443609
0.443609
0.443624
0.443639
0.443655
0.44367
0.44367
0.443686
0.443701
0.443717
0.443733
0.443733
0.443748
0.443764
0.44378
0.443795
0.443795
0.443811
0.443827
0.443843
0.443859
0.443859
0.443875
0.44389
0.443906
0.443922
0.443922
0.443938
0.443955
0.443971
0.443987
0.443987
0.444003
0.444019
0.444035
0.444052
0.444052
0.444068
0.444084
0.444101
0.444117
0.444117
0.444133
0.44415
0.444166
0.444183
0.444183
0.444199
0.444216
0.444232
0.444249
0.444249
0.444266
0.444283
0.444299
0.444316
0.444316
0.444333
0.44435
0.444367
0.444383
0.444383
0.4444
0.444417
0.444434
0.444451
0.444451
0.444468
0.444485
0.444503
0.44452
0.44452
0.444537
0.444554
0.444571
0.444589
0.444589
0.444606
0.444623
0.444641
0.444658
0.444658
0.444676
0.444693
0.444711
0.444728
0.444728
0.444746
0.444763
0.444781
0.444799
0.444799
0.444816
0.444834
0.444852
0.44487
0.44487
0.444887
0.444905
0.444923
0.444941
0.444941
0.444959
0.444977
0.444995
0.445013
0.445013
0.445031
0.445049
0.445067
0.445086
0.445086
0.445104
0.445122
0.44514
0.445159
0.445159
0.445177
0.445195
0.445214
0.445232
0.445232
0.445251
0.445269
0.445288
0.445306
0.445306
0.445325
0.445343
0.445362
0.445381
0.445381
0.4454
0.445418
0.445437
0.445456
0.445456
0.445475
0.445494
0.445513
0.445532
0.445532
0.445551
0.44557
0.445589
0.445608
0.445608
0.445627
0.445646
0.445665
0.445684
0.445684
0.445704
0.445723
0.445742
0.445762
0.445762
0.445781
0.4458
0.44582
0.445839
0.445839
0.445859
0.445878
0.445898
0.445917
0.445917
0.445937
0.445957
0.445976
0.445996
0.445996
0.446016
0.446036
0.446055
0.446075
0.446075
0.446095
0.446115
0.446135
0.446155
0.446155
0.446175
0.446195
0.446215
0.446235
0.446235
0.446255
0.446276
0.446296
0.446316
0.446316
0.446336
0.446357
0.446377
0.446397
0.446397
0.446418
0.446438
0.446459
0.446479
0.446479
0.4465
0.44652
0.446541
0.446562
0.446562
0.446582
0.446603
0.446624
0.446644
0.446644
0.446665
0.446686
0.446707
0.446728
0.446728
0.446749
0.44677
0.446791
0.446812
0.446812
0.446833
0.446854
0.446875
0.446896
0.446896
0.446917
0.446938
0.44696
0.446981
0.446981
0.447002
0.447024
0.447045
0.447066
0.447066
0.447088
0.447109
0.447131
0.447152
0.447152
0.447174
0.447195
0.447217
0.447239
0.447239
0.44726
0.447282
0.447304
0.447326
0.447326
0.447348
0.447369
0.447391
0.447413
0.447413
0.447435
0.447457
0.447479
0.447501
0.447501
0.447523
0.447545
0.447568
0.44759
0.44759
0.447612
0.447634
0.447657
0.447679
0.447679
0.447701
0.447724
0.447746
0.447768
0.447768
0.447791
0.447813
0.447836
0.447859
0.447859
0.447881
0.447904
0.447926
0.447949
0.447949
0.447972
0.447995
0.448017
0.44804
0.44804
0.448063
0.448086
0.448109
0.448132
0.448132
0.448155
0.448178
0.448201
0.448224
0.448224
0.448247
0.44827
0.448294
0.448317
0.448317
0.44834
0.448363
0.448387
0.44841
0.44841
0.448433
0.448457
0.44848
0.448504
0.448504
0.448527
0.448551
0.448574
0.448598
0.448598
0.448622
0.448645
0.448669
0.448693
0.448693
0.448716
0.44874
0.448764
0.448788
0.448788
0.448812
0.448836
0.44886
0.448884
0.448884
0.448908
0.448932
0.448956
0.44898
0.44898
0.449004
0.449028
0.449053
0.449077
0.449077
0.449101
0.449126
0.44915
0.449174
0.449174
0.449199
0.449223
0.449248
0.449272
0.449272
0.449297
0.449321
0.449346
0.449371
0.449371
0.449395
0.44942
0.449445
0.44947
0.44947
0.449494
0.449519
0.449544
0.449569
0.449569
0.449594
0.449619
0.449644
0.449669
0.449669
0.449694
0.449719
0.449744
0.44977
0.44977
0.449795
0.44982
0.449845
0.449871
0.449871
0.449896
0.449921
0.449947
0.449972
0.449972
0.449998
0.450023
0.450049
0.450074
0.450074
0.4501
0.450125
0.450151
0.450177
0.450177
0.450202
0.450228
0.450254
0.45028
0.45028
0.450306
0.450332
0.450357
0.450383
0.450383
0.450409
0.450435
0.450462
0.450488
0.450488
0.450514
0.45054
0.450566
0.450592
0.450592
0.450619
0.450645
0.450671
0.450697
0.450697
0.450724
0.45075
0.450777
0.450803
0.450803
0.45083
0.450856
0.450883
0.450909
0.450909
0.450936
0.450963
0.450989
0.451016
0.451016
0.451043
0.45107
0.451097
0.451124
0.451124
0.45115
0.451177
0.451204
0.451231
0.451231
0.451258
0.451285
0.451313
0.45134
0.45134
0.451367
0.451394
0.451421
0.451449
0.451449
0.451476
0.451503
0.451531
0.451558
0.451558
0.451585
0.451613
0.45164
0.451668
0.451668
0.451695
0.451723
0.451751
0.451778
0.451778
0.451806
0.451834
0.451861
0.451889
0.451889
0.451917
0.451945
0.451973
0.452001
0.452001
0.452029
0.452057
0.452085
0.452113
0.452113
0.452141
0.452169
0.452197
0.452225
0.452225
0.452254
0.452282
0.45231
0.452338
0.452338
0.452367
0.452395
0.452424
0.452452
0.452452
0.45248
0.452509
0.452538
0.452566
0.452566
0.452595
0.452623
0.452652
0.452681
0.452681
0.45271
0.452738
0.452767
0.452796
0.452796
0.452825
0.452854
0.452883
0.452912
0.452912
0.452941
0.45297
0.452999
0.453028
0.453028
0.453057
0.453086
0.453115
0.453145
0.453145
0.453174
0.453203
0.453233
0.453262
0.453262
0.453291
0.453321
0.45335
0.45338
0.45338
0.453409
0.453439
0.453468
0.453498
0.453498
0.453528
0.453557
0.453587
0.453617
0.453617
0.453647
0.453677
0.453706
0.453736
0.453736
0.453766
0.453796
0.453826
0.453856
0.453856
0.453886
0.453916
0.453947
0.453977
0.453977
0.454007
0.454037
0.454067
0.454098
0.454098
0.454128
0.454158
0.454189
0.454219
0.454219
0.45425
0.45428
0.454311
0.454341
0.454341
0.454372
0.454402
0.454433
0.454464
0.454464
0.454495
0.454525
0.454556
0.454587
0.454587
0.454618
0.454649
0.45468
0.454711
0.454711
0.454742
0.454773
0.454804
0.454835
0.454835
0.454866
0.454897
0.454928
0.454959
0.454959
0.454991
0.455022
0.455053
0.455085
0.455085
0.455116
0.455147
0.455179
0.45521
0.45521
0.455242
0.455273
0.455305
0.455337
0.455337
0.455368
0.4554
0.455432
0.455463
0.455463
0.455495
0.455527
0.455559
0.455591
0.455591
0.455623
0.455655
0.455687
0.455719
0.455719
0.455751
0.455783
0.455815
0.455847
0.455847
0.455879
0.455912
0.455944
0.455976
0.455976
0.456008
0.456041
0.456073
0.456106
0.456106
0.456138
0.45617
0.456203
0.456236
0.456236
0.456268
0.456301
0.456333
0.456366
0.456366
0.456399
0.456432
0.456464
0.456497
0.456497
0.45653
0.456563
0.456596
0.456629
0.456629
0.456662
0.456695
0.456728
0.456761
0.456761
0.456794
0.456827
0.45686
0.456894
0.456894
0.456927
0.45696
0.456993
0.457027
0.457027
0.45706
0.457094
0.457127
0.45716
0.45716
0.457194
0.457228
0.457261
0.457295
0.457295
0.457328
0.457362
0.457396
0.45743
0.45743
0.457463
0.457497
0.457531
0.457565
0.457565
0.457599
0.457633
0.457667
0.457701
0.457701
0.457735
0.457769
0.457803
0.457837
0.457837
0.457871
0.457906
0.45794
0.457974
0.457974
0.458008
0.458043
0.458077
0.458112
0.458112
0.458146
0.458181
0.458215
0.45825
0.45825
0.458284
0.458319
0.458354
0.458388
0.458388
0.458423
0.458458
0.458492
0.458527
0.458527
0.458562
0.458597
0.458632
0.458667
0.458667
0.458702
0.458737
0.458772
0.458807
0.458807
0.458842
0.458877
0.458913
0.458948
0.458948
0.458983
0.459018
0.459054
0.459089
0.459089
0.459124
0.45916
0.459195
0.459231
0.459231
0.459266
0.459302
0.459338
0.459373
0.459373
0.459409
0.459444
0.45948
0.459516
0.459516
0.459552
0.459588
0.459623
0.459659
0.459659
0.459695
0.459731
0.459767
0.459803
0.459803
0.459839
0.459875
0.459912
0.459948
0.459948
0.459984
0.46002
0.460056
0.460093
0.460093
0.460129
0.460165
0.460202
0.460238
0.460238
0.460275
0.460311
0.460348
0.460384
0.460384
0.460421
0.460458
0.460494
0.460531
0.460531
0.460568
0.460605
0.460641
0.460678
0.460678
0.460715
0.460752
0.460789
0.460826
0.460826
0.460863
0.4609
0.460937
0.460974
0.460974
0.461011
0.461048
0.461086
0.461123
0.461123
0.46116
0.461198
0.461235
0.461272
0.461272
0.46131
0.461347
0.461385
0.461422
0.461422
0.46146
0.461497
0.461535
0.461573
0.461573
0.46161
0.461648
0.461686
0.461724
0.461724
0.461761
0.461799
0.461837
0.461875
0.461875
0.461913
0.461951
0.461989
0.462027
0.462027
0.462065
0.462103
0.462141
0.46218
0.46218
0.462218
0.462256
0.462294
0.462333
0.462333
0.462371
0.46241
0.462448
0.462486
0.462486
0.462525
0.462563
0.462602
0.462641
0.462641
0.462679
0.462718
0.462757
0.462795
0.462795
0.462834
0.462873
0.462912
0.462951
0.462951
0.46299
0.463029
0.463068
0.463107
0.463107
0.463146
0.463185
0.463224
0.463263
0.463263
0.463302
0.463341
0.463381
0.46342
0.46342
0.463459
0.463499
0.463538
0.463577
0.463577
0.463617
0.463656
0.463696
0.463735
0.463735
0.463775
0.463815
0.463854
0.463894
0.463894
0.463934
0.463973
0.464013
0.464053
0.464053
0.464093
0.464133
0.464173
0.464213
0.464213
0.464253
0.464293
0.464333
0.464373
0.464373
0.464413
0.464453
0.464493
0.464534
0.464534
0.464574
0.464614
0.464655
0.464695
0.464695
0.464735
0.464776
0.464816
0.464857
0.464857
0.464897
0.464938
0.464979
0.465019
0.465019
0.46506
0.465101
0.465141
0.465182
0.465182
0.465223
0.465264
0.465305
0.465346
0.465346
0.465387
0.465428
0.465469
0.46551
0.46551
0.465551
0.465592
0.465633
0.465674
0.465674
0.465716
0.465757
0.465798
0.465839
0.465839
0.465881
0.465922
0.465964
0.466005
0.466005
0.466047
0.466088
0.46613
0.466171
0.466171
0.466213
0.466255
0.466296
0.466338
0.466338
0.46638
0.466422
0.466464
0.466505
0.466505
0.466547
0.466589
0.466631
0.466673
0.466673
0.466715
0.466758
0.4668
0.466842
0.466842
0.466884
0.466926
0.466969
0.467011
0.467011
0.467053
0.467096
0.467138
0.46718
0.46718
0.467223
0.467265
0.467308
0.46735
0.46735
0.467393
0.467436
0.467478
0.467521
0.467521
0.467564
0.467607
0.467649
0.467692
0.467692
0.467735
0.467778
0.467821
0.467864
0.467864
0.467907
0.46795
0.467993
0.468036
0.468036
0.46808
0.468123
0.468166
0.468209
0.468209
0.468253
0.468296
0.468339
0.468383
0.468383
0.468426
0.46847
0.468513
0.468557
0.468557
0.4686
0.468644
0.468687
0.468731
0.468731
0.468775
0.468819
0.468862
0.468906
0.468906
0.46895
0.468994
0.469038
0.469082
0.469082
0.469126
0.46917
0.469214
0.469258
0.469258
0.469302
0.469346
0.469391
0.469435
0.469435
0.469479
0.469523
0.469568
0.469612
0.469612
0.469656
0.469701
0.469745
0.46979
0.46979
0.469834
0.469879
0.469924
0.469968
0.469968
0.470013
0.470058
0.470103
0.470147
0.470147
0.470192
0.470237
0.470282
0.470327
0.470327
0.470372
0.470417
0.470462
0.470507
0.470507
0.470552
0.470597
0.470642
0.470688
0.470688
0.470733
0.470778
0.470823
0.470869
0.470869
0.470914
0.47096
0.471005
0.471051
0.471051
0.471096
0.471142
0.471187
0.471233
0.471233
0.471279
0.471324
0.47137
0.471416
0.471416
0.471462
0.471507
0.471553
0.471599
0.471599
0.471645
0.471691
0.471737
0.471783
0.471783
0.471829
0.471875
0.471922
0.471968
0.471968
0.472014
0.47206
0.472106
0.472153
0.472153
0.472199
0.472246
0.472292
0.472339
0.472339
0.472385
0.472432
0.472478
0.472525
0.472525
0.472571
0.472618
0.472665
0.472712
0.472712
0.472758
0.472805
0.472852
0.472899
0.472899
0.472946
0.472993
0.47304
0.473087
0.473087
0.473134
0.473181
0.473228
0.473275
0.473275
0.473323
0.47337
0.473417
0.473464
0.473464
0.473512
0.473559
0.473607
0.473654
0.473654
0.473701
0.473749
0.473797
0.473844
0.473844
0.473892
0.473939
0.473987
0.474035
0.474035
0.474083
0.474131
0.474178
0.474226
0.474226
0.474274
0.474322
0.47437
0.474418
0.474418
0.474466
0.474514
0.474562
0.474611
0.474611
0.474659
0.474707
0.474755
0.474804
0.474804
0.474852
0.4749
0.474949
0.474997
0.474997
0.475046
0.475094
0.475143
0.475191
0.475191
0.47524
0.475289
0.475337
0.475386
0.475386
0.475435
0.475484
0.475532
0.475581
0.475581
0.47563
0.475679
0.475728
0.475777
0.475777
0.475826
0.475875
0.475924
0.475973
0.475973
0.476023
0.476072
0.476121
0.47617
0.47617
0.47622
0.476269
0.476319
0.476368
0.476368
0.476417
0.476467
0.476517
0.476566
0.476566
0.476616
0.476665
0.476715
0.476765
0.476765
0.476815
0.476864
0.476914
0.476964
0.476964
0.477014
0.477064
0.477114
0.477164
0.477164
0.477214
0.477264
0.477314
0.477364
0.477364
0.477414
0.477465
0.477515
0.477565
0.477565
0.477616
0.477666
0.477716
0.477767
0.477767
0.477817
0.477868
0.477918
0.477969
0.477969
0.478019
0.47807
0.478121
0.478172
0.478172
0.478222
0.478273
0.478324
0.478375
0.478375
0.478426
0.478477
0.478528
0.478579
0.478579
0.47863
0.478681
0.478732
0.478783
0.478783
0.478834
0.478885
0.478937
0.478988
0.478988
0.479039
0.479091
0.479142
0.479194
0.479194
0.479245
0.479296
0.479348
0.4794
0.4794
0.479451
0.479503
0.479555
0.479606
0.479606
0.479658
0.47971
0.479762
0.479814
0.479814
0.479865
0.479917
0.479969
0.480021
0.480021
0.480073
0.480126
0.480178
0.48023
0.48023
0.480282
0.480334
0.480387
0.480439
0.480439
0.480491
0.480544
0.480596
0.480648
0.480648
0.480701
0.480753
0.480806
0.480859
0.480859
0.480911
0.480964
0.481017
0.481069
0.481069
0.481122
0.481175
0.481228
0.481281
0.481281
0.481334
0.481386
0.481439
0.481492
0.481492
0.481546
0.481599
0.481652
0.481705
0.481705
0.481758
0.481811
0.481865
0.481918
0.481918
0.481971
0.482025
0.482078
0.482132
0.482132
0.482185
0.482239
0.482292
0.482346
0.482346
0.482399
0.482453
0.482507
0.482561
0.482561
0.482614
0.482668
0.482722
0.482776
0.482776
0.48283
0.482884
0.482938
0.482992
0.482992
0.483046
0.4831
0.483154
0.483208
0.483208
0.483263
0.483317
0.483371
0.483426
0.483426
0.48348
0.483534
0.483589
0.483643
0.483643
0.483698
0.483752
0.483807
0.483862
0.483862
0.483916
0.483971
0.484026
0.48408
0.48408
0.484135
0.48419
0.484245
0.4843
0.4843
0.484355
0.48441
0.484465
0.48452
0.48452
0.484575
0.48463
0.484685
0.48474
0.48474
0.484796
0.484851
0.484906
0.484962
0.484962
0.485017
0.485072
0.485128
0.485183
0.485183
0.485239
0.485295
0.48535
0.485406
0.485406
0.485461
0.485517
0.485573
0.485629
0.485629
0.485685
0.48574
0.485796
0.485852
0.485852
0.485908
0.485964
0.48602
0.486076
0.486076
0.486133
0.486189
0.486245
0.486301
0.486301
0.486357
0.486414
0.48647
0.486526
0.486526
0.486583
0.486639
0.486696
0.486752
0.486752
0.486809
0.486866
0.486922
0.486979
0.486979
0.487036
0.487092
0.487149
0.487206
0.487206
0.487263
0.48732
0.487377
0.487434
0.487434
0.487491
0.487548
0.487605
0.487662
0.487662
0.487719
0.487776
0.487833
0.487891
0.487891
0.487948
0.488005
0.488063
0.48812
0.48812
0.488178
0.488235
0.488293
0.48835
0.48835
0.488408
0.488465
0.488523
0.488581
0.488581
0.488639
0.488696
0.488754
0.488812
0.488812
0.48887
0.488928
0.488986
0.489044
0.489044
0.489102
0.48916
0.489218
0.489276
0.489276
0.489334
0.489393
0.489451
0.489509
0.489509
0.489568
0.489626
0.489684
0.489743
0.489743
0.489801
0.48986
0.489918
0.489977
0.489977
0.490036
0.490094
0.490153
0.490212
0.490212
0.490271
0.490329
0.490388
0.490447
0.490447
0.490506
0.490565
0.490624
0.490683
0.490683
0.490742
0.490801
0.490861
0.49092
0.49092
0.490979
0.491038
0.491098
0.491157
0.491157
0.491216
0.491276
0.491335
0.491395
0.491395
0.491454
0.491514
0.491573
0.491633
0.491633
0.491693
0.491752
0.491812
0.491872
0.491872
0.491932
0.491992
0.492052
0.492112
0.492112
0.492172
0.492232
0.492292
0.492352
0.492352
0.492412
0.492472
0.492532
0.492593
0.492593
0.492653
0.492713
0.492773
0.492834
0.492834
0.492894
0.492955
0.493015
0.493076
0.493076
0.493136
0.493197
0.493258
0.493318
0.493318
0.493379
0.49344
0.493501
0.493562
0.493562
0.493623
0.493683
0.493744
0.493805
0.493805
0.493866
0.493928
0.493989
0.49405
0.49405
0.494111
0.494172
0.494233
0.494295
0.494295
0.494356
0.494418
0.494479
0.49454
0.49454
0.494602
0.494663
0.494725
0.494787
0.494787
0.494848
0.49491
0.494972
0.495033
0.495033
0.495095
0.495157
0.495219
0.495281
0.495281
0.495343
0.495405
0.495467
0.495529
0.495529
0.495591
0.495653
0.495715
0.495777
0.495777
0.49584
0.495902
0.495964
0.496027
0.496027
0.496089
0.496152
0.496214
0.496277
0.496277
0.496339
0.496402
0.496464
0.496527
0.496527
0.49659
0.496652
0.496715
0.496778
0.496778
0.496841
0.496904
0.496967
0.49703
0.49703
0.497093
0.497156
0.497219
0.497282
0.497282
0.497345
0.497408
0.497472
0.497535
0.497535
0.497598
0.497662
0.497725
0.497788
0.497788
0.497852
0.497915
0.497979
0.498043
0.498043
0.498106
0.49817
0.498234
0.498297
0.498297
0.498361
0.498425
0.498489
0.498553
0.498553
0.498617
0.498681
0.498745
0.498809
0.498809
0.498873
0.498937
0.499001
0.499065
0.499065
0.499129
0.499194
0.499258
0.499322
0.499322
0.499387
0.499451
0.499516
0.49958
0.49958
0.499645
0.499709
0.499774
0.499839
0.499839
0.499903
0.499968
0.500033
0.500098
0.500098
0.500162
0.500227
0.500292
0.500357
0.500357
0.500422
0.500487
0.500552
0.500618
0.500618
0.500683
0.500748
0.500813
0.500878
0.500878
0.500944
0.501009
0.501074
0.50114
0.50114
0.501205
0.501271
0.501336
0.501402
0.501402
0.501468
0.501533
0.501599
0.501665
0.501665
0.501731
0.501796
0.501862
0.501928
0.501928
0.501994
0.50206
0.502126
0.502192
0.502192
0.502258
0.502324
0.502391
0.502457
0.502457
0.502523
0.502589
0.502656
0.502722
0.502722
0.502788
0.502855
0.502921
0.502988
0.502988
0.503054
0.503121
0.503188
0.503254
0.503254
0.503321
0.503388
0.503455
0.503521
0.503521
0.503588
0.503655
0.503722
0.503789
0.503789
0.503856
0.503923
0.50399
0.504058
0.504058
0.504125
0.504192
0.504259
0.504327
0.504327
0.504394
0.504461
0.504529
0.504596
0.504596
0.504664
0.504731
0.504799
0.504866
0.504866
0.504934
0.505002
0.505069
0.505137
0.505137
0.505205
0.505273
0.505341
0.505409
0.505409
0.505477
0.505545
0.505613
0.505681
0.505681
0.505749
0.505817
0.505885
0.505954
0.505954
0.506022
0.50609
0.506159
0.506227
0.506227
0.506295
0.506364
0.506432
0.506501
0.506501
0.50657
0.506638
0.506707
0.506776
0.506776
0.506844
0.506913
0.506982
0.507051
0.507051
0.50712
0.507189
0.507258
0.507327
0.507327
0.507396
0.507465
0.507534
0.507603
0.507603
0.507673
0.507742
0.507811
0.507881
0.507881
0.50795
0.508019
0.508089
0.508158
0.508158
0.508228
0.508297
0.508367
0.508437
0.508437
0.508506
0.508576
0.508646
0.508716
0.508716
0.508786
0.508856
0.508926
0.508996
0.508996
0.509066
0.509136
0.509206
0.509276
0.509276
0.509346
0.509416
0.509487
0.509557
0.509557
0.509627
0.509698
0.509768
0.509839
0.509839
0.509909
0.50998
0.51005
0.510121
0.510121
0.510191
0.510262
0.510333
0.510404
0.510404
0.510475
0.510545
0.510616
0.510687
0.510687
0.510758
0.510829
0.5109
0.510971
0.510971
0.511043
0.511114
0.511185
0.511256
0.511256
0.511328
0.511399
0.51147
0.511542
0.511542
0.511613
0.511685
0.511756
0.511828
0.511828
0.511899
0.511971
0.512043
0.512115
0.512115
0.512186
0.512258
0.51233
0.512402
0.512402
0.512474
0.512546
0.512618
0.51269
0.51269
0.512762
0.512834
0.512906
0.512979
0.512979
0.513051
0.513123
0.513196
0.513268
0.513268
0.51334
0.513413
0.513485
0.513558
0.513558
0.513631
0.513703
0.513776
0.513849
0.513849
0.513921
0.513994
0.514067
0.51414
0.51414
0.514213
0.514286
0.514359
0.514432
0.514432
0.514505
0.514578
0.514651
0.514724
0.514724
0.514798
0.514871
0.514944
0.515018
0.515018
0.515091
0.515165
0.515238
0.515312
0.515312
0.515385
0.515459
0.515532
0.515606
0.515606
0.51568
0.515754
0.515827
0.515901
0.515901
0.515975
0.516049
0.516123
0.516197
0.516197
0.516271
0.516345
0.516419
0.516494
0.516494
0.516568
0.516642
0.516716
0.516791
0.516791
0.516865
0.51694
0.517014
0.517088
0.517088
0.517163
0.517238
0.517312
0.517387
0.517387
0.517462
0.517536
0.517611
0.517686
0.517686
0.517761
0.517836
0.517911
0.517986
0.517986
0.518061
0.518136
0.518211
0.518286
0.518286
0.518361
0.518437
0.518512
0.518587
0.518587
0.518663
0.518738
0.518814
0.518889
0.518889
0.518965
0.51904
0.519116
0.519191
0.519191
0.519267
0.519343
0.519419
0.519494
0.519494
0.51957
0.519646
0.519722
0.519798
0.519798
0.519874
0.51995
0.520026
0.520103
0.520103
0.520179
0.520255
0.520331
0.520408
0.520408
0.520484
0.52056
0.520637
0.520713
0.520713
0.52079
0.520866
0.520943
0.52102
0.52102
0.521096
0.521173
0.52125
0.521327
0.521327
0.521404
0.52148
0.521557
0.521634
0.521634
0.521711
0.521789
0.521866
0.521943
0.521943
0.52202
0.522097
0.522174
0.522252
0.522252
0.522329
0.522407
0.522484
0.522562
0.522562
0.522639
0.522717
0.522794
0.522872
0.522872
0.52295
0.523027
0.523105
0.523183
0.523183
0.523261
0.523339
0.523417
0.523495
0.523495
0.523573
0.523651
0.523729
0.523807
0.523807
0.523885
0.523963
0.524042
0.52412
0.52412
0.524198
0.524277
0.524355
0.524434
0.524434
0.524512
0.524591
0.524669
0.524748
0.524748
0.524827
0.524906
0.524984
0.525063
0.525063
0.525142
0.525221
0.5253
0.525379
0.525379
0.525458
0.525537
0.525616
0.525695
0.525695
0.525775
0.525854
0.525933
0.526012
0.526012
0.526092
0.526171
0.526251
0.52633
0.52633
0.52641
0.526489
0.526569
0.526649
0.526649
0.526728
0.526808
0.526888
0.526968
0.526968
0.527048
0.527128
0.527208
0.527288
0.527288
0.527368
0.527448
0.527528
0.527608
0.527608
0.527688
0.527769
0.527849
0.527929
0.527929
0.52801
0.52809
0.528171
0.528251
0.528251
0.528332
0.528412
0.528493
0.528574
0.528574
0.528654
0.528735
0.528816
0.528897
0.528897
0.528978
0.529059
0.52914
0.529221
0.529221
0.529302
0.529383
0.529464
0.529545
0.529545
0.529627
0.529708
0.529789
0.529871
0.529871
0.529952
0.530033
0.530115
0.530197
0.530197
0.530278
0.53036
0.530441
0.530523
0.530523
0.530605
0.530687
0.530769
0.53085
0.53085
0.530932
0.531014
0.531096
0.531179
0.531179
0.531261
0.531343
0.531425
0.531507
0.531507
0.53159
0.531672
0.531754
0.531837
0.531837
0.531919
0.532002
0.532084
0.532167
0.532167
0.532249
0.532332
0.532415
0.532497
0.532497
0.53258
0.532663
0.532746
0.532829
0.532829
0.532912
0.532995
0.533078
0.533161
0.533161
0.533244
0.533327
0.533411
0.533494
0.533494
0.533577
0.533661
0.533744
0.533828
0.533828
0.533911
0.533995
0.534078
0.534162
0.534162
0.534245
0.534329
0.534413
0.534497
0.534497
0.534581
0.534664
0.534748
0.534832
0.534832
0.534916
0.535
0.535085
0.535169
0.535169
0.535253
0.535337
0.535421
0.535506
0.535506
0.53559
0.535675
0.535759
0.535843
0.535843
0.535928
0.536013
0.536097
0.536182
0.536182
0.536267
0.536351
0.536436
0.536521
0.536521
0.536606
0.536691
0.536776
0.536861
0.536861
0.536946
0.537031
0.537116
0.537201
0.537201
0.537287
0.537372
0.537457
0.537543
0.537543
0.537628
0.537714
0.537799
0.537885
0.537885
0.53797
0.538056
0.538142
0.538227
0.538227
0.538313
0.538399
0.538485
0.538571
0.538571
0.538657
0.538743
0.538829
0.538915
0.538915
0.539001
0.539087
0.539173
0.53926
0.53926
0.539346
0.539432
0.539519
0.539605
0.539605
0.539692
0.539778
0.539865
0.539951
0.539951
0.540038
0.540125
0.540211
0.540298
0.540298
0.540385
0.540472
0.540559
0.540646
0.540646
0.540733
0.54082
0.540907
0.540994
0.540994
0.541081
0.541169
0.541256
0.541343
0.541343
0.541431
0.541518
0.541606
0.541693
0.541693
0.541781
0.541868
0.541956
0.542044
0.542044
0.542131
0.542219
0.542307
0.542395
0.542395
0.542483
0.542571
0.542659
0.542747
0.542747
0.542835
0.542923
0.543011
0.543099
0.543099
0.543188
0.543276
0.543364
0.543453
0.543453
0.543541
0.54363
0.543718
0.543807
0.543807
0.543895
0.543984
0.544073
0.544162
0.544162
0.54425
0.544339
0.544428
0.544517
0.544517
0.544606
0.544695
0.544784
0.544873
0.544873
0.544963
0.545052
0.545141
0.54523
0.54523
0.54532
0.545409
0.545499
0.545588
0.545588
0.545678
0.545767
0.545857
0.545947
0.545947
0.546036
0.546126
0.546216
0.546306
0.546306
0.546396
0.546486
0.546576
0.546666
0.546666
0.546756
0.546846
0.546936
0.547026
0.547026
0.547116
0.547207
0.547297
0.547388
0.547388
0.547478
0.547568
0.547659
0.54775
0.54775
0.54784
0.547931
0.548022
0.548112
0.548112
0.548203
0.548294
0.548385
0.548476
0.548476
0.548567
0.548658
0.548749
0.54884
0.54884
0.548931
0.549023
0.549114
0.549205
0.549205
0.549297
0.549388
0.54948
0.549571
0.549571
0.549663
0.549754
0.549846
0.549938
0.549938
0.550029
0.550121
0.550213
0.550305
0.550305
0.550397
0.550489
0.550581
0.550673
0.550673
0.550765
0.550857
0.550949
0.551041
0.551041
0.551134
0.551226
0.551318
0.551411
0.551411
0.551503
0.551596
0.551688
0.551781
0.551781
0.551874
0.551966
0.552059
0.552152
0.552152
0.552245
0.552338
0.552431
0.552524
0.552524
0.552617
0.55271
0.552803
0.552896
0.552896
0.552989
0.553083
0.553176
0.553269
0.553269
0.553363
0.553456
0.55355
0.553643
0.553643
0.553737
0.55383
0.553924
0.554018
0.554018
0.554112
0.554205
0.554299
0.554393
0.554393
0.554487
0.554581
0.554675
0.554769
0.554769
0.554863
0.554958
0.555052
0.555146
0.555146
0.555241
0.555335
0.555429
0.555524
0.555524
0.555618
0.555713
0.555808
0.555902
0.555902
0.555997
0.556092
0.556187
0.556281
0.556281
0.556376
0.556471
0.556566
0.556661
0.556661
0.556757
0.556852
0.556947
0.557042
0.557042
0.557137
0.557233
0.557328
0.557424
0.557424
0.557519
0.557615
0.55771
0.557806
0.557806
0.557901
0.557997
0.558093
0.558189
0.558189
0.558285
0.55838
0.558476
0.558572
0.558572
0.558668
0.558764
0.55886
0.558957
0.558957
0.559053
0.559148
0.559244
0.55934
0.55934
0.559435
0.559529
0.559621
0.559712
0.559712
0.559801
0.559879
0.559947
0.560004
0.560004
0.560035
0.560062
0.560084
0.560103