<?xml version="1.0"?>
<VTKFile type="UnstructuredGrid" version="0.1" byte_order="LittleEndian">
<UnstructuredGrid>
<Piece NumberOfPoints="5000" NumberOfCells="4000">
<PointData Scalars="Reaction 0">
<DataArray type="Float32" Name="Reaction 0" format="ascii">
0.56936
0.56936
0.56936
0.56936
0.56936
0.56936
0.56936
0.56936
0.56936
0.56936
0.56936
0.56936
0.56936
0.56936
0.56936
0.56936
0.56936
0.56936
0.56936
0.56936
0.56936
0.56936
0.56936
0.56936
0.56936
0.56936
0.56936
0.56936
0.56936
0.56936
0.56936
0.56936
0.56936
0.56936
0.569361
0.569361
0.569361
0.569361
0.569361
0.569361
0.569361
0.569361
0.569361
0.569361
0.569361
0.569361
0.569361
0.569361
0.569361
0.569361
0.569361
0.569362
0.569362
0.569362
0.569362
0.569362
0.569362
0.569362
0.569362
0.569362
0.569362
0.569362
0.569362
0.569363
0.569363
0.569363
0.569363
0.569363
0.569363
0.569363
0.569363
0.569363
0.569363
0.569364
0.569364
0.569364
0.569364
0.569364
0.569364
0.569364
0.569364
0.569364
0.569365
0.569365
0.569365
0.569365
0.569365
0.569365
0.569365
0.569365
0.569365
0.569366
0.569366
0.569366
0.569366
0.569366
0.569366
0.569366
0.569367
0.569367
0.569367
0.569367
0.569367
0.569367
0.569368
0.569368
0.569368
0.569368
0.569368
0.569368
0.569368
0.569369
0.569369
0.569369
0.569369
0.569369
0.569369
0.56937
0.56937
0.56937
0.56937
0.56937
0.56937
0.569371
0.569371
0.569371
0.569371
0.569371
0.569372
0.569372
0.569372
0.569372
0.569372
0.569372
0.569373
0.569373
0.569373
0.569373
0.569373
0.569374
0.569374
0.569374
0.569374
0.569374
0.569375
0.569375
0.569375
0.569375
0.569375
0.569376
0.569376
0.569376
0.569376
0.569377
0.569377
0.569377
0.569377
0.569377
0.569378
0.569378
0.569378
0.569378
0.569379
0.569379
0.569379
0.569379
0.569379
0.56938
0.56938
0.56938
0.56938
0.569381
0.569381
0.569381
0.569382
0.569382
0.569382
0.569382
0.569383
0.569383
0.569383
0.569383
0.569384
0.569384
0.569384
0.569384
0.569385
0.569385
0.569385
0.569386
0.569386
0.569386
0.569386
0.569387
0.569387
0.569387
0.569387
0.569388
0.569388
0.569388
0.569388
0.569389
0.569389
0.569389
0.56939
0.56939
0.56939
0.569391
0.569391
0.569391
0.569391
0.569392
0.569392
0.569392
0.569393
0.569393
0.569393
0.569394
0.569394
0.569394
0.569394
0.569395
0.569395
0.569396
0.569396
0.569396
0.569396
0.569397
0.569397
0.569398
0.569398
0.569398
0.569398
0.569399
0.569399
0.569399
0.5694
0.5694
0.569401
0.569401
0.569401
0.569401
0.569402
0.569402
0.569403
0.569403
0.569403
0.569404
0.569404
0.569405
0.569405
0.569405
0.569405
0.569406
0.569406
0.569406
0.569407
0.569407
0.569408
0.569408
0.569408
0.569409
0.569409
0.56941
0.56941
0.56941
0.569411
0.569411
0.569412
0.569412
0.569412
0.569413
0.569413
0.569413
0.569414
0.569414
0.569414
0.569415
0.569415
0.569416
0.569416
0.569416
0.569417
0.569418
0.569418
0.569418
0.569419
0.569419
0.56942
0.56942
0.56942
0.569421
0.569421
0.569422
0.569422
0.569422
0.569423
0.569423
0.569424
0.569424
0.569424
0.569425
0.569425
0.569426
0.569427
0.569427
0.569427
0.569428
0.569428
0.569429
0.569429
0.569429
0.56943
0.56943
0.569431
0.569431
0.569432
0.569432
0.569433
0.569433
0.569433
0.569434
0.569434
0.569435
0.569436
0.569436
0.569436
0.569437
0.569437
0.569438
0.569438
0.569439
0.569439
0.56944
0.56944
0.56944
0.569441
0.569442
0.569442
0.569443
0.569443
0.569444
0.569444
0.569445
0.569445
0.569445
0.569446
0.569447
0.569447
0.569448
0.569448
0.569449
0.569449
0.56945
0.56945
0.56945
0.569451
0.569452
0.569452
0.569453
0.569453
0.569454
0.569454
0.569455
0.569456
0.569456
0.569456
0.569457
0.569458
0.569458
0.569458
0.569459
0.56946
0.56946
0.569461
0.569461
0.569462
0.569462
0.569463
0.569464
0.569464
0.569464
0.569465
0.569466
0.569467
0.569467
0.569467
0.569468
0.569469
0.569469
0.569469
0.56947
0.569471
0.569472
0.569472
0.569472
0.569473
0.569474
0.569474
0.569475
0.569475
0.569476
0.569477
0.569477
0.569478
0.569478
0.569479
0.56948
0.56948
0.569481
0.569481
0.569482
0.569483
0.569483
0.569484
0.569484
0.569485
0.569486
0.569486
0.569487
0.569487
0.569488
0.569489
0.569489
0.56949
0.56949
0.569491
0.569492
0.569493
0.569493
0.569493
0.569494
0.569495
0.569496
0.569496
0.569496
0.569497
0.569498
0.569499
0.5695
0.5695
0.5695
0.569501
0.569502
0.569503
0.569503
0.569504
0.569505
0.569505
0.569506
0.569506
0.569507
0.569508
0.569509
0.569509
0.569509
0.56951
0.569511
0.569512
0.569513
0.569513
0.569514
0.569514
0.569515
0.569516
0.569516
0.569517
0.569518
0.569519
0.56952
0.56952
0.56952
0.569521
0.569522
0.569523
0.569523
0.569524
0.569525
0.569526
0.569527
0.569527
0.569527
0.569528
0.569529
0.56953
0.56953
0.569531
0.569532
0.569533
0.569534
0.569534
0.569535
0.569536
0.569536
0.569537
0.569537
0.569538
0.569539
0.56954
0.569541
0.569541
0.569542
0.569543
0.569544
0.569545
0.569545
0.569546
0.569547
0.569547
0.569548
0.569548
0.569549
0.56955
0.569551
0.569552
0.569552
0.569553
0.569554
0.569555
0.569556
0.569556
0.569557
0.569558
0.569559
0.56956
0.56956
0.569561
0.569562
0.569563
0.569564
0.569564
0.569565
0.569566
0.569567
0.569568
0.569568
0.569569
0.56957
0.569571
0.569572
0.569572
0.569573
0.569574
0.569575
0.569576
0.569576
0.569577
0.569578
0.569579
0.56958
0.56958
0.569581
0.569582
0.569583
0.569584
0.569584
0.569585
0.569586
0.569587
0.569588
0.569588
0.569589
0.56959
0.569591
0.569592
0.569592
0.569593
0.569594
0.569595
0.569596
0.569596
0.569597
0.569598
0.569599
0.569601
0.569601
0.569602
0.569603
0.569604
0.569605
0.569605
0.569606
0.569607
0.569608
0.569609
0.569609
0.56961
0.569611
0.569612
0.569613
0.569613
0.569615
0.569616
0.569617
0.569618
0.569618
0.569619
0.56962
0.569621
0.569622
0.569622
0.569623
0.569625
0.569626
0.569627
0.569627
0.569628
0.569629
0.56963
0.569631
0.569631
0.569632
0.569634
0.569635
0.569636
0.569636
0.569637
0.569638
0.569639
0.569641
0.569641
0.569642
0.569643
0.569644
0.569645
0.569645
0.569646
0.569648
0.569649
0.56965
0.56965
0.569651
0.569652
0.569653
0.569655
0.569655
0.569656
0.569657
0.569658
0.569659
0.569659
0.569661
0.569662
0.569663
0.569664
0.569664
0.569665
0.569667
0.569668
0.569669
0.569669
0.56967
0.569671
0.569673
0.569674
0.569674
0.569675
0.569676
0.569678
0.569679
0.569679
0.56968
0.569681
0.569683
0.569684
0.569684
0.569685
0.569686
0.569688
0.569689
0.569689
0.56969
0.569691
0.569693
0.569694
0.569694
0.569695
0.569696
0.569698
0.569699
0.569699
0.5697
0.569702
0.569703
0.569704
0.569704
0.569705
0.569707
0.569708
0.569709
0.569709
0.569711
0.569712
0.569713
0.569714
0.569714
0.569716
0.569717
0.569718
0.56972
0.56972
0.569721
0.569722
0.569724
0.569725
0.569725
0.569726
0.569728
0.569729
0.56973
0.56973
0.569732
0.569733
0.569734
0.569736
0.569736
0.569737
0.569738
0.56974
0.569741
0.569741
0.569743
0.569744
0.569745
0.569747
0.569747
0.569748
0.569749
0.569751
0.569752
0.569752
0.569754
0.569755
0.569756
0.569758
0.569758
0.569759
0.569761
0.569762
0.569763
0.569763
0.569765
0.569766
0.569768
0.569769
0.569769
0.56977
0.569772
0.569773
0.569775
0.569775
0.569776
0.569778
0.569779
0.56978
0.56978
0.569782
0.569783
0.569785
0.569786
0.569786
0.569788
0.569789
0.569791
0.569792
0.569792
0.569793
0.569795
0.569796
0.569798
0.569798
0.569799
0.569801
0.569802
0.569804
0.569804
0.569805
0.569807
0.569808
0.56981
0.56981
0.569811
0.569813
0.569814
0.569816
0.569816
0.569817
0.569819
0.56982
0.569822
0.569822
0.569823
0.569825
0.569826
0.569828
0.569828
0.569829
0.569831
0.569832
0.569834
0.569834
0.569835
0.569837
0.569838
0.56984
0.56984
0.569841
0.569843
0.569845
0.569846
0.569846
0.569848
0.569849
0.569851
0.569852
0.569852
0.569854
0.569856
0.569857
0.569859
0.569859
0.56986
0.569862
0.569863
0.569865
0.569865
0.569867
0.569868
0.56987
0.569871
0.569871
0.569873
0.569875
0.569876
0.569878
0.569878
0.569879
0.569881
0.569883
0.569884
0.569884
0.569886
0.569888
0.569889
0.569891
0.569891
0.569892
0.569894
0.569896
0.569897
0.569897
0.569899
0.569901
0.569902
0.569904
0.569904
0.569906
0.569907
0.569909
0.569911
0.569911
0.569912
0.569914
0.569916
0.569917
0.569917
0.569919
0.569921
0.569922
0.569924
0.569924
0.569926
0.569927
0.569929
0.569931
0.569931
0.569933
0.569934
0.569936
0.569938
0.569938
0.569939
0.569941
0.569943
0.569945
0.569945
0.569946
0.569948
0.56995
0.569951
0.569951
0.569953
0.569955
0.569957
0.569958
0.569958
0.56996
0.569962
0.569964
0.569965
0.569965
0.569967
0.569969
0.569971
0.569972
0.569972
0.569974
0.569976
0.569978
0.56998
0.56998
0.569981
0.569983
0.569985
0.569987
0.569987
0.569989
0.56999
0.569992
0.569994
0.569994
0.569996
0.569998
0.569999
0.570001
0.570001
0.570003
0.570005
0.570007
0.570008
0.570008
0.57001
0.570012
0.570014
0.570016
0.570016
0.570018
0.570019
0.570021
0.570023
0.570023
0.570025
0.570027
0.570029
0.570031
0.570031
0.570032
0.570034
0.570036
0.570038
0.570038
0.57004
0.570042
0.570044
0.570046
0.570046
0.570047
0.570049
0.570051
0.570053
0.570053
0.570055
0.570057
0.570059
0.570061
0.570061
0.570063
0.570065
0.570067
0.570068
0.570068
0.57007
0.570072
0.570074
0.570076
0.570076
0.570078
0.57008
0.570082
0.570084
0.570084
0.570086
0.570088
0.57009
0.570092
0.570092
0.570094
0.570096
0.570098
0.5701
0.5701
0.570102
0.570104
0.570105
0.570107
0.570107
0.570109
0.570111
0.570113
0.570115
0.570115
0.570117
0.570119
0.570121
0.570123
0.570123
0.570125
0.570127
0.570129
0.570131
0.570131
0.570134
0.570136
0.570138
0.57014
0.57014
0.570142
0.570144
0.570146
0.570148
0.570148
0.57015
0.570152
0.570154
0.570156
0.570156
0.570158
0.57016
0.570162
0.570164
0.570164
0.570166
0.570168
0.57017
0.570172
0.570172
0.570175
0.570177
0.570179
0.570181
0.570181
0.570183
0.570185
0.570187
0.570189
0.570189
0.570191
0.570193
0.570196
0.570198
0.570198
0.5702
0.570202
0.570204
0.570206
0.570206
0.570208
0.57021
0.570212
0.570215
0.570215
0.570217
0.570219
0.570221
0.570223
0.570223
0.570225
0.570227
0.57023
0.570232
0.570232
0.570234
0.570236
0.570238
0.57024
0.57024
0.570243
0.570245
0.570247
0.570249
0.570249
0.570252
0.570254
0.570256
0.570258
0.570258
0.57026
0.570263
0.570265
0.570267
0.570267
0.570269
0.570271
0.570274
0.570276
0.570276
0.570278
0.57028
0.570283
0.570285
0.570285
0.570287
0.570289
0.570292
0.570294
0.570294
0.570296
0.570298
0.570301
0.570303
0.570303
0.570305
0.570307
0.57031
0.570312
0.570312
0.570314
0.570317
0.570319
0.570321
0.570321
0.570323
0.570326
0.570328
0.57033
0.57033
0.570333
0.570335
0.570337
0.57034
0.57034
0.570342
0.570344
0.570347
0.570349
0.570349
0.570351
0.570354
0.570356
0.570358
0.570358
0.570361
0.570363
0.570365
0.570368
0.570368
0.57037
0.570373
0.570375
0.570377
0.570377
0.57038
0.570382
0.570384
0.570387
0.570387
0.570389
0.570392
0.570394
0.570396
0.570396
0.570399
0.570401
0.570404
0.570406
0.570406
0.570408
0.570411
0.570413
0.570416
0.570416
0.570418
0.570421
0.570423
0.570425
0.570425
0.570428
0.57043
0.570433
0.570435
0.570435
0.570438
0.57044
0.570443
0.570445
0.570445
0.570448
0.57045
0.570453
0.570455
0.570455
0.570457
0.57046
0.570462
0.570465
0.570465
0.570467
0.57047
0.570472
0.570475
0.570475
0.570477
0.57048
0.570483
0.570485
0.570485
0.570488
0.57049
0.570493
0.570495
0.570495
0.570498
0.5705
0.570503
0.570505
0.570505
0.570508
0.57051
0.570513
0.570516
0.570516
0.570518
0.570521
0.570523
0.570526
0.570526
0.570528
0.570531
0.570534
0.570536
0.570536
0.570539
0.570541
0.570544
0.570547
0.570547
0.570549
0.570552
0.570554
0.570557
0.570557
0.57056
0.570562
0.570565
0.570568
0.570568
0.57057
0.570573
0.570576
0.570578
0.570578
0.570581
0.570583
0.570586
0.570589
0.570589
0.570591
0.570594
0.570597
0.570599
0.570599
0.570602
0.570605
0.570608
0.57061
0.57061
0.570613
0.570616
0.570618
0.570621
0.570621
0.570624
0.570626
0.570629
0.570632
0.570632
0.570634
0.570637
0.57064
0.570643
0.570643
0.570645
0.570648
0.570651
0.570654
0.570654
0.570656
0.570659
0.570662
0.570665
0.570665
0.570667
0.57067
0.570673
0.570676
0.570676
0.570679
0.570681
0.570684
0.570687
0.570687
0.57069
0.570693
0.570695
0.570698
0.570698
0.570701
0.570704
0.570707
0.57071
0.57071
0.570712
0.570715
0.570718
0.570721
0.570721
0.570724
0.570727
0.570729
0.570732
0.570732
0.570735
0.570738
0.570741
0.570744
0.570744
0.570747
0.57075
0.570752
0.570755
0.570755
0.570758
0.570761
0.570764
0.570767
0.570767
0.57077
0.570773
0.570776
0.570778
0.570778
0.570781
0.570784
0.570787
0.57079
0.57079
0.570793
0.570796
0.570799
0.570802
0.570802
0.570805
0.570808
0.570811
0.570814
0.570814
0.570817
0.57082
0.570823
0.570826
0.570826
0.570829
0.570832
0.570835
0.570838
0.570838
0.570841
0.570844
0.570847
0.57085
0.57085
0.570853
0.570856
0.570859
0.570862
0.570862
0.570865
0.570868
0.570871
0.570874
0.570874
0.570877
0.57088
0.570883
0.570886
0.570886
0.570889
0.570892
0.570895
0.570898
0.570898
0.570901
0.570904
0.570907
0.570911
0.570911
0.570914
0.570917
0.57092
0.570923
0.570923
0.570926
0.570929
0.570932
0.570935
0.570935
0.570938
0.570942
0.570945
0.570948
0.570948
0.570951
0.570954
0.570957
0.57096
0.57096
0.570964
0.570967
0.57097
0.570973
0.570973
0.570976
0.570979
0.570983
0.570986
0.570986
0.570989
0.570992
0.570995
0.570998
0.570998
0.571002
0.571005
0.571008
0.571011
0.571011
0.571015
0.571018
0.571021
0.571024
0.571024
0.571027
0.571031
0.571034
0.571037
0.571037
0.57104
0.571044
0.571047
0.57105
0.57105
0.571053
0.571057
0.57106
0.571063
0.571063
0.571066
0.57107
0.571073
0.571076
0.571076
0.57108
0.571083
0.571086
0.571089
0.571089
0.571093
0.571096
0.571099
0.571103
0.571103
0.571106
0.571109
0.571113
0.571116
0.571116
0.571119
0.571123
0.571126
0.57113
0.57113
0.571133
0.571136
0.57114
0.571143
0.571143
0.571147
0.57115
0.571153
0.571157
0.571157
0.57116
0.571164
0.571167
0.57117
0.57117
0.571174
0.571177
0.571181
0.571184
0.571184
0.571188
0.571191
0.571194
0.571198
0.571198
0.571201
0.571205
0.571208
0.571212
0.571212
0.571215
0.571219
0.571222
0.571226
0.571226
0.571229
0.571233
0.571236
0.57124
0.57124
0.571243
0.571247
0.57125
0.571254
0.571254
0.571257
0.571261
0.571264
0.571268
0.571268
0.571271
0.571275
0.571278
0.571282
0.571282
0.571285
0.571289
0.571293
0.571296
0.571296
0.5713
0.571303
0.571307
0.57131
0.57131
0.571314
0.571318
0.571321
0.571325
0.571325
0.571328
0.571332
0.571336
0.571339
0.571339
0.571343
0.571347
0.57135
0.571354
0.571354
0.571358
0.571361
0.571365
0.571368
0.571368
0.571372
0.571376
0.571379
0.571383
0.571383
0.571387
0.571391
0.571394
0.571398
0.571398
0.571402
0.571405
0.571409
0.571413
0.571413
0.571416
0.57142
0.571424
0.571428
0.571428
0.571431
0.571435
0.571439
0.571443
0.571443
0.571446
0.57145
0.571454
0.571458
0.571458
0.571461
0.571465
0.571469
0.571473
0.571473
0.571477
0.57148
0.571484
0.571488
0.571488
0.571492
0.571496
0.571499
0.571503
0.571503
0.571507
0.571511
0.571515
0.571519
0.571519
0.571522
0.571526
0.57153
0.571534
0.571534
0.571538
0.571542
0.571546
0.571549
0.571549
0.571553
0.571557
0.571561
0.571565
0.571565
0.571569
0.571573
0.571576
0.57158
0.57158
0.571584
0.571588
0.571592
0.571596
0.571596
0.5716
0.571604
0.571608
0.571612
0.571612
0.571616
0.57162
0.571624
0.571628
0.571628
0.571632
0.571636
0.57164
0.571644
0.571644
0.571648
0.571652
0.571656
0.57166
0.57166
0.571664
0.571668
0.571672
0.571676
0.571676
0.57168
0.571684
0.571688
0.571692
0.571692
0.571696
0.571701
0.571705
0.571709
0.571709
0.571713
0.571717
0.571721
0.571725
0.571725
0.571729
0.571733
0.571737
0.571741
0.571741
0.571746
0.57175
0.571754
0.571758
0.571758
0.571762
0.571766
0.57177
0.571775
0.571775
0.571779
0.571783
0.571787
0.571791
0.571791
0.571795
0.5718
0.571804
0.571808
0.571808
0.571812
0.571816
0.571821
0.571825
0.571825
0.571829
0.571833
0.571837
0.571842
0.571842
0.571846
0.57185
0.571854
0.571859
0.571859
0.571863
0.571867
0.571872
0.571876
0.571876
0.57188
0.571884
0.571889
0.571893
0.571893
0.571897
0.571902
0.571906
0.57191
0.57191
0.571915
0.571919
0.571923
0.571928
0.571928
0.571932
0.571936
0.571941
0.571945
0.571945
0.571949
0.571954
0.571958
0.571962
0.571962
0.571967
0.571971
0.571976
0.57198
0.57198
0.571984
0.571989
0.571993
0.571998
0.571998
0.572002
0.572007
0.572011
0.572015
0.572015
0.57202
0.572024
0.572029
0.572033
0.572033
0.572038
0.572042
0.572047
0.572051
0.572051
0.572056
0.57206
0.572064
0.572069
0.572069
0.572073
0.572078
0.572082
0.572087
0.572087
0.572091
0.572096
0.572101
0.572105
0.572105
0.57211
0.572114
0.572119
0.572124
0.572124
0.572128
0.572133
0.572137
0.572142
0.572142
0.572147
0.572151
0.572156
0.57216
0.57216
0.572165
0.57217
0.572174
0.572179
0.572179
0.572184
0.572188
0.572193
0.572198
0.572198
0.572202
0.572207
0.572212
0.572216
0.572216
0.572221
0.572226
0.57223
0.572235
0.572235
0.57224
0.572245
0.572249
0.572254
0.572254
0.572259
0.572264
0.572268
0.572273
0.572273
0.572278
0.572283
0.572287
0.572292
0.572292
0.572297
0.572302
0.572306
0.572311
0.572311
0.572316
0.572321
0.572326
0.572331
0.572331
0.572335
0.57234
0.572345
0.57235
0.57235
0.572355
0.57236
0.572364
0.572369
0.572369
0.572374
0.572379
0.572384
0.572389
0.572389
0.572394
0.572399
0.572404
0.572409
0.572409
0.572413
0.572418
0.572423
0.572428
0.572428
0.572433
0.572438
0.572443
0.572448
0.572448
0.572453
0.572458
0.572463
0.572468
0.572468
0.572473
0.572478
0.572483
0.572488
0.572488
0.572493
0.572498
0.572503
0.572508
0.572508
0.572513
0.572518
0.572523
0.572528
0.572528
0.572533
0.572538
0.572543
0.572549
0.572549
0.572554
0.572559
0.572564
0.572569
0.572569
0.572574
0.572579
0.572584
0.572589
0.572589
0.572594
0.5726
0.572605
0.57261
0.57261
0.572615
0.57262
0.572625
0.57263
0.57263
0.572635
0.572641
0.572646
0.572651
0.572651
0.572656
0.572662
0.572667
0.572672
0.572672
0.572677
0.572683
0.572688
0.572693
0.572693
0.572699
0.572704
0.572709
0.572714
0.572714
0.57272
0.572725
0.57273
0.572736
0.572736
0.572741
0.572746
0.572752
0.572757
0.572757
0.572762
0.572768
0.572773
0.572778
0.572778
0.572784
0.572789
0.572794
0.5728
0.5728
0.572805
0.572811
0.572816
0.572821
0.572821
0.572827
0.572832
0.572838
0.572843
0.572843
0.572849
0.572854
0.572859
0.572865
0.572865
0.57287
0.572876
0.572881
0.572887
0.572887
0.572892
0.572898
0.572903
0.572909
0.572909
0.572914
0.57292
0.572925
0.572931
0.572931
0.572936
0.572942
0.572948
0.572953
0.572953
0.572959
0.572964
0.57297
0.572975
0.572975
0.572981
0.572987
0.572992
0.572998
0.572998
0.573003
0.573009
0.573015
0.57302
0.57302
0.573026
0.573032
0.573037
0.573043
0.573043
0.573049
0.573054
0.57306
0.573066
0.573066
0.573071
0.573077
0.573083
0.573089
0.573089
0.573094
0.5731
0.573106
0.573112
0.573112
0.573117
0.573123
0.573129
0.573135
0.573135
0.57314
0.573146
0.573152
0.573158
0.573158
0.573164
0.573169
0.573175
0.573181
0.573181
0.573187
0.573193
0.573198
0.573204
0.573204
0.57321
0.573216
0.573222
0.573228
0.573228
0.573234
0.57324
0.573246
0.573251
0.573251
0.573257
0.573263
0.573269
0.573275
0.573275
0.573281
0.573287
0.573293
0.573299
0.573299
0.573305
0.573311
0.573317
0.573323
0.573323
0.573329
0.573335
0.573341
0.573347
0.573347
0.573353
0.57336
0.573366
0.573372
0.573372
0.573378
0.573384
0.57339
0.573396
0.573396
0.573402
0.573408
0.573414
0.57342
0.57342
0.573427
0.573433
0.573439
0.573445
0.573445
0.573451
0.573457
0.573463
0.57347
0.57347
0.573476
0.573482
0.573488
0.573494
0.573494
0.573501
0.573507
0.573513
0.573519
0.573519
0.573526
0.573532
0.573538
0.573544
0.573544
0.573551
0.573557
0.573563
0.573569
0.573569
0.573576
0.573582
0.573588
0.573595
0.573595
0.573601
0.573607
0.573614
0.57362
0.57362
0.573627
0.573633
0.573639
0.573646
0.573646
0.573652
0.573658
0.573665
0.573671
0.573671
0.573678
0.573684
0.573691
0.573697
0.573697
0.573703
0.57371
0.573716
0.573723
0.573723
0.573729
0.573736
0.573742
0.573749
0.573749
0.573755
0.573762
0.573768
0.573775
0.573775
0.573781
0.573788
0.573794
0.573801
0.573801
0.573808
0.573814
0.573821
0.573827
0.573827
0.573834
0.57384
0.573847
0.573854
0.573854
0.57386
0.573867
0.573874
0.57388
0.57388
0.573887
0.573894
0.573901
0.573907
0.573907
0.573914
0.573921
0.573928
0.573934
0.573934
0.573941
0.573948
0.573955
0.573961
0.573961
0.573968
0.573975
0.573982
0.573989
0.573989
0.573995
0.574002
0.574009
0.574016
0.574016
0.574023
0.57403
0.574036
0.574043
0.574043
0.57405
0.574057
0.574064
0.574071
0.574071
0.574078
0.574085
0.574091
0.574098
0.574098
0.574105
0.574112
0.574119
0.574126
0.574126
0.574133
0.57414
0.574147
0.574154
0.574154
0.574161
0.574168
0.574175
0.574182
0.574182
0.574189
0.574196
0.574203
0.57421
0.57421
0.574217
0.574225
0.574232
0.574239
0.574239
0.574246
0.574253
0.57426
0.574267
0.574267
0.574274
0.574281
0.574289
0.574296
0.574296
0.574303
0.57431
0.574317
0.574325
0.574325
0.574332
0.574339
0.574346
0.574353
0.574353
0.574361
0.574368
0.574375
0.574382
0.574382
0.57439
0.574397
0.574404
0.574411
0.574411
0.574419
0.574426
0.574433
0.574441
0.574441
0.574448
0.574455
0.574463
0.57447
0.57447
0.574477
0.574485
0.574492
0.574499
0.574499
0.574507
0.574514
0.574522
0.574529
0.574529
0.574537
0.574544
0.574552
0.574559
0.574559
0.574567
0.574574
0.574582
0.574589
0.574589
0.574597
0.574605
0.574612
0.57462
0.57462
0.574627
0.574635
0.574642
0.57465
0.57465
0.574658
0.574665
0.574673
0.57468
0.57468
0.574688
0.574696
0.574703
0.574711
0.574711
0.574719
0.574726
0.574734
0.574742
0.574742
0.574749
0.574757
0.574765
0.574773
0.574773
0.57478
0.574788
0.574796
0.574804
0.574804
0.574811
0.574819
0.574827
0.574835
0.574835
0.574843
0.574851
0.574858
0.574866
0.574866
0.574874
0.574882
0.57489
0.574898
0.574898
0.574906
0.574913
0.574921
0.574929
0.574929
0.574937
0.574945
0.574953
0.574961
0.574961
0.574969
0.574977
0.574985
0.574993
0.574993
0.575001
0.575009
0.575017
0.575025
0.575025
0.575033
0.575041
0.575049
0.575057
0.575057
0.575065
0.575074
0.575082
0.57509
0.57509
0.575098
0.575106
0.575114
0.575122
0.575122
0.57513
0.575138
0.575147
0.575155
0.575155
0.575163
0.575171
0.575179
0.575187
0.575187
0.575196
0.575204
0.575212
0.575221
0.575221
0.575229
0.575237
0.575246
0.575254
0.575254
0.575262
0.575271
0.575279
0.575287
0.575287
0.575296
0.575304
0.575313
0.575321
0.575321
0.575329
0.575338
0.575346
0.575355
0.575355
0.575363
0.575372
0.57538
0.575389
0.575389
0.575397
0.575406
0.575414
0.575423
0.575423
0.575431
0.57544
0.575448
0.575457
0.575457
0.575465
0.575474
0.575483
0.575491
0.575491
0.5755
0.575508
0.575517
0.575526
0.575526
0.575534
0.575543
0.575552
0.57556
0.57556
0.575569
0.575578
0.575587
0.575595
0.575595
0.575604
0.575613
0.575622
0.57563
0.57563
0.575639
0.575648
0.575657
0.575665
0.575665
0.575674
0.575683
0.575692
0.575701
0.575701
0.57571
0.575719
0.575727
0.575736
0.575736
0.575745
0.575754
0.575763
0.575772
0.575772
0.575781
0.57579
0.575799
0.575808
0.575808
0.575817
0.575826
0.575835
0.575844
0.575844
0.575853
0.575862
0.575871
0.57588
0.57588
0.575889
0.575898
0.575907
0.575916
0.575916
0.575925
0.575934
0.575943
0.575953
0.575953
0.575962
0.575971
0.57598
0.57599
0.57599
0.575999
0.576008
0.576017
0.576027
0.576027
0.576036
0.576045
0.576055
0.576064
0.576064
0.576073
0.576083
0.576092
0.576101
0.576101
0.576111
0.57612
0.576129
0.576139
0.576139
0.576148
0.576158
0.576167
0.576177
0.576177
0.576186
0.576195
0.576205
0.576214
0.576214
0.576224
0.576233
0.576243
0.576252
0.576252
0.576262
0.576272
0.576281
0.576291
0.576291
0.5763
0.57631
0.576319
0.576329
0.576329
0.576339
0.576348
0.576358
0.576368
0.576368
0.576377
0.576387
0.576397
0.576406
0.576406
0.576416
0.576426
0.576436
0.576445
0.576445
0.576455
0.576465
0.576475
0.576485
0.576485
0.576494
0.576504
0.576514
0.576524
0.576524
0.576534
0.576544
0.576554
0.576564
0.576564
0.576573
0.576583
0.576593
0.576603
0.576603
0.576613
0.576623
0.576633
0.576643
0.576643
0.576653
0.576663
0.576673
0.576683
0.576683
0.576693
0.576703
0.576713
0.576723
0.576723
0.576733
0.576743
0.576754
0.576764
0.576764
0.576774
0.576784
0.576794
0.576805
0.576805
0.576815
0.576825
0.576836
0.576846
0.576846
0.576856
0.576866
0.576877
0.576887
0.576887
0.576897
0.576908
0.576918
0.576928
0.576928
0.576939
0.576949
0.57696
0.57697
0.57697
0.57698
0.576991
0.577001
0.577012
0.577012
0.577022
0.577033
0.577043
0.577054
0.577054
0.577064
0.577075
0.577085
0.577096
0.577096
0.577107
0.577117
0.577128
0.577138
0.577138
0.577149
0.57716
0.57717
0.577181
0.577181
0.577192
0.577202
0.577213
0.577224
0.577224
0.577234
0.577245
0.577256
0.577267
0.577267
0.577277
0.577288
0.577299
0.57731
0.57731
0.577321
0.577332
0.577342
0.577353
0.577353
0.577364
0.577375
0.577386
0.577397
0.577397
0.577408
0.577419
0.57743
0.577441
0.577441
0.577452
0.577463
0.577474
0.577485
0.577485
0.577496
0.577507
0.577518
0.577529
0.577529
0.57754
0.577551
0.577562
0.577573
0.577573
0.577584
0.577595
0.577607
0.577618
0.577618
0.577629
0.577641
0.577652
0.577663
0.577663
0.577675
0.577686
0.577697
0.577709
0.577709
0.57772
0.577731
0.577743
0.577754
0.577754
0.577765
0.577777
0.577788
0.5778
0.5778
0.577811
0.577823
0.577834
0.577846
0.577846
0.577857
0.577869
0.57788
0.577892
0.577892
0.577903
0.577915
0.577926
0.577938
0.577938
0.57795
0.577961
0.577973
0.577985
0.577985
0.577996
0.578008
0.57802
0.578031
0.578031
0.578043
0.578055
0.578067
0.578078
0.578078
0.57809
0.578102
0.578114
0.578126
0.578126
0.578138
0.578149
0.578161
0.578173
0.578173
0.578185
0.578197
0.578209
0.578221
0.578221
0.578233
0.578245
0.578257
0.578269
0.578269
0.578281
0.578293
0.578305
0.578317
0.578317
0.578329
0.578341
0.578353
0.578365
0.578365
0.578377
0.57839
0.578402
0.578414
0.578414
0.578426
0.578438
0.57845
0.578463
0.578463
0.578475
0.578487
0.578499
0.578512
0.578512
0.578524
0.578537
0.578549
0.578561
0.578561
0.578574
0.578586
0.578599
0.578611
0.578611
0.578624
0.578636
0.578649
0.578661
0.578661
0.578674
0.578686
0.578699
0.578712
0.578712
0.578724
0.578737
0.578749
0.578762
0.578762
0.578775
0.578787
0.5788
0.578813
0.578813
0.578826
0.578838
0.578851
0.578864
0.578864
0.578877
0.578889
0.578902
0.578915
0.578915
0.578928
0.578941
0.578954
0.578966
0.578966
0.578979
0.578992
0.579005
0.579018
0.579018
0.579031
0.579044
0.579057
0.57907
0.57907
0.579083
0.579096
0.579109
0.579122
0.579122
0.579135
0.579149
0.579162
0.579175
0.579175
0.579188
0.579201
0.579214
0.579227
0.579227
0.579241
0.579254
0.579267
0.57928
0.57928
0.579294
0.579307
0.57932
0.579334
0.579334
0.579347
0.57936
0.579373
0.579387
0.579387
0.5794
0.579414
0.579427
0.579441
0.579441
0.579454
0.579468
0.579481
0.579495
0.579495
0.579508
0.579522
0.579536
0.579549
0.579549
0.579563
0.579577
0.579591
0.579604
0.579604
0.579618
0.579632
0.579646
0.579659
0.579659
0.579673
0.579687
0.579701
0.579715
0.579715
0.579728
0.579742
0.579756
0.57977
0.57977
0.579784
0.579798
0.579812
0.579826
0.579826
0.57984
0.579854
0.579868
0.579882
0.579882
0.579896
0.57991
0.579924
0.579938
0.579938
0.579952
0.579967
0.579981
0.579995
0.579995
0.580009
0.580023
0.580038
0.580052
0.580052
0.580066
0.58008
0.580095
0.580109
0.580109
0.580123
0.580138
0.580152
0.580166
0.580166
0.580181
0.580195
0.58021
0.580224
0.580224
0.580239
0.580253
0.580268
0.580282
0.580282
0.580297
0.580311
0.580326
0.58034
0.58034
0.580355
0.58037
0.580384
0.580399
0.580399
0.580413
0.580428
0.580443
0.580458
0.580458
0.580472
0.580487
0.580502
0.580517
0.580517
0.580532
0.580547
0.580562
0.580577
0.580577
0.580592
0.580607
0.580622
0.580637
0.580637
0.580652
0.580667
0.580682
0.580697
0.580697
0.580712
0.580727
0.580743
0.580758
0.580758
0.580773
0.580788
0.580803
0.580819
0.580819
0.580834
0.580849
0.580864
0.58088
0.58088
0.580895
0.58091
0.580926
0.580941
0.580941
0.580957
0.580972
0.580987
0.581003
0.581003
0.581018
0.581034
0.581049
0.581065
0.581065
0.58108
0.581096
0.581112
0.581127
0.581127
0.581143
0.581159
0.581174
0.58119
0.58119
0.581206
0.581221
0.581237
0.581253
0.581253
0.581269
0.581284
0.5813
0.581316
0.581316
0.581332
0.581348
0.581364
0.58138
0.58138
0.581395
0.581411
0.581427
0.581443
0.581443
0.581459
0.581475
0.581491
0.581507
0.581507
0.581523
0.58154
0.581556
0.581572
0.581572
0.581588
0.581605
0.581621
0.581637
0.581637
0.581654
0.58167
0.581686
0.581703
0.581703
0.581719
0.581736
0.581752
0.581769
0.581769
0.581785
0.581802
0.581818
0.581835
0.581835
0.581851
0.581868
0.581884
0.581901
0.581901
0.581918
0.581934
0.581951
0.581968
0.581968
0.581984
0.582001
0.582018
0.582035
0.582035
0.582051
0.582068
0.582085
0.582102
0.582102
0.582119
0.582136
0.582153
0.58217
0.58217
0.582187
0.582204
0.582221
0.582238
0.582238
0.582255
0.582272
0.582289
0.582306
0.582306
0.582323
0.58234
0.582358
0.582375
0.582375
0.582392
0.582409
0.582426
0.582444
0.582444
0.582461
0.582478
0.582496
0.582513
0.582513
0.58253
0.582548
0.582565
0.582583
0.582583
0.5826
0.582617
0.582635
0.582652
0.582652
0.58267
0.582688
0.582705
0.582723
0.582723
0.582741
0.582759
0.582776
0.582794
0.582794
0.582812
0.58283
0.582848
0.582866
0.582866
0.582884
0.582902
0.58292
0.582937
0.582937
0.582955
0.582973
0.582991
0.58301
0.58301
0.583028
0.583046
0.583064
0.583082
0.583082
0.5831
0.583118
0.583136
0.583155
0.583155
0.583173
0.583191
0.58321
0.583228
0.583228
0.583246
0.583265
0.583283
0.583301
0.583301
0.58332
0.583338
0.583357
0.583375
0.583375
0.583394
0.583412
0.583431
0.583449
0.583449
0.583468
0.583487
0.583505
0.583524
0.583524
0.583543
0.583561
0.58358
0.583599
0.583599
0.583618
0.583636
0.583655
0.583674
0.583674
0.583693
0.583712
0.583731
0.58375
0.58375
0.583769
0.583788
0.583807
0.583826
0.583826
0.583845
0.583864
0.583883
0.583902
0.583902
0.583921
0.583941
0.58396
0.583979
0.583979
0.583999
0.584018
0.584038
0.584057
0.584057
0.584076
0.584096
0.584115
0.584135
0.584135
0.584154
0.584174
0.584194
0.584213
0.584213
0.584233
0.584253
0.584272
0.584292
0.584292
0.584312
0.584331
0.584351
0.584371
0.584371
0.584391
0.584411
0.58443
0.58445
0.58445
0.58447
0.58449
0.58451
0.58453
0.58453
0.58455
0.58457
0.58459
0.58461
0.58461
0.58463
0.584651
0.584671
0.584691
0.584691
0.584711
0.584731
0.584752
0.584772
0.584772
0.584792
0.584813
0.584833
0.584853
0.584853
0.584874
0.584894
0.584915
0.584935
0.584935
0.584956
0.584976
0.584997
0.585017
0.585017
0.585038
0.585058
0.585079
0.5851
0.5851
0.58512
0.585141
0.585162
0.585183
0.585183
0.585204
0.585225
0.585246
0.585267
0.585267
0.585288
0.585309
0.58533
0.585351
0.585351
0.585372
0.585393
0.585414