<?xml version="1.0"?>
<VTKFile type="UnstructuredGrid" version="0.1" byte_order="LittleEndian">
<UnstructuredGrid>
<Piece NumberOfPoints="5000" NumberOfCells="4000">
<PointData Scalars="Reaction 0">
<DataArray type="Float32" Name="Reaction 0" format="ascii">
0.576418
0.576418
0.576418
0.576418
0.576418
0.576418
0.576418
0.576418
0.576418
0.576418
0.576418
0.576418
0.576418
0.576418
0.576418
0.576418
0.576418
0.576418
0.576418
0.576418
0.576418
0.576418
0.576419
0.576419
0.576419
0.576419
0.576419
0.576419
0.576419
0.576419
0.576419
0.576419
0.57642
0.57642
0.57642
0.57642
0.57642
0.57642
0.57642
0.576421
0.576421
0.576421
0.576421
0.576421
0.576421
0.576421
0.576422
0.576422
0.576422
0.576422
0.576422
0.576422
0.576423
0.576423
0.576423
0.576423
0.576423
0.576424
0.576424
0.576424
0.576424
0.576425
0.576425
0.576425
0.576425
0.576425
0.576426
0.576426
0.576426
0.576427
0.576427
0.576427
0.576427
0.576428
0.576428
0.576428
0.576428
0.576429
0.576429
0.576429
0.576429
0.57643
0.57643
0.576431
0.576431
0.576431
0.576431
0.576432
0.576432
0.576433
0.576433
0.576433
0.576433
0.576434
0.576434
0.576434
0.576435
0.576435
0.576436
0.576436
0.576436
0.576437
0.576437
0.576437
0.576438
0.576438
0.576438
0.576439
0.576439
0.57644
0.57644
0.57644
0.576441
0.576441
0.576442
0.576442
0.576443
0.576443
0.576444
0.576444
0.576444
0.576445
0.576445
0.576446
0.576446
0.576446
0.576447
0.576448
0.576448
0.576449
0.576449
0.576449
0.57645
0.576451
0.576451
0.576451
0.576452
0.576452
0.576453
0.576454
0.576454
0.576454
0.576455
0.576456
0.576456
0.576456
0.576457
0.576458
0.576458
0.576459
0.576459
0.57646
0.57646
0.576461
0.576462
0.576462
0.576463
0.576463
0.576464
0.576465
0.576465
0.576466
0.576466
0.576467
0.576468
0.576468
0.576469
0.576469
0.57647
0.576471
0.576471
0.576472
0.576472
0.576473
0.576474
0.576474
0.576475
0.576476
0.576477
0.576477
0.576477
0.576478
0.576479
0.57648
0.576481
0.576481
0.576482
0.576482
0.576483
0.576484
0.576484
0.576485
0.576486
0.576487
0.576488
0.576488
0.576489
0.57649
0.57649
0.576491
0.576491
0.576492
0.576493
0.576494
0.576495
0.576495
0.576496
0.576497
0.576498
0.576499
0.576499
0.5765
0.576501
0.576502
0.576503
0.576503
0.576504
0.576505
0.576506
0.576507
0.576507
0.576508
0.576509
0.57651
0.576511
0.576511
0.576512
0.576513
0.576514
0.576515
0.576515
0.576516
0.576517
0.576518
0.57652
0.57652
0.576521
0.576522
0.576523
0.576524
0.576524
0.576525
0.576526
0.576527
0.576528
0.576528
0.57653
0.576531
0.576532
0.576533
0.576533
0.576534
0.576535
0.576537
0.576538
0.576538
0.576539
0.57654
0.576541
0.576542
0.576542
0.576544
0.576545
0.576546
0.576547
0.576547
0.576549
0.57655
0.576551
0.576552
0.576552
0.576554
0.576555
0.576556
0.576557
0.576557
0.576559
0.57656
0.576561
0.576563
0.576563
0.576564
0.576565
0.576566
0.576568
0.576568
0.576569
0.57657
0.576572
0.576573
0.576573
0.576574
0.576576
0.576577
0.576579
0.576579
0.57658
0.576581
0.576583
0.576584
0.576584
0.576585
0.576587
0.576588
0.57659
0.57659
0.576591
0.576593
0.576594
0.576595
0.576595
0.576597
0.576598
0.5766
0.576601
0.576601
0.576603
0.576604
0.576606
0.576607
0.576607
0.576609
0.57661
0.576612
0.576613
0.576613
0.576615
0.576616
0.576618
0.576619
0.576619
0.576621
0.576622
0.576624
0.576625
0.576625
0.576627
0.576629
0.57663
0.576632
0.576632
0.576633
0.576635
0.576636
0.576638
0.576638
0.57664
0.576641
0.576643
0.576645
0.576645
0.576646
0.576648
0.576649
0.576651
0.576651
0.576653
0.576654
0.576656
0.576658
0.576658
0.576659
0.576661
0.576663
0.576664
0.576664
0.576666
0.576668
0.57667
0.576671
0.576671
0.576673
0.576675
0.576676
0.576678
0.576678
0.57668
0.576682
0.576684
0.576685
0.576685
0.576687
0.576689
0.576691
0.576693
0.576693
0.576694
0.576696
0.576698
0.5767
0.5767
0.576702
0.576704
0.576705
0.576707
0.576707
0.576709
0.576711
0.576713
0.576715
0.576715
0.576717
0.576718
0.57672
0.576722
0.576722
0.576724
0.576726
0.576728
0.57673
0.57673
0.576732
0.576734
0.576736
0.576738
0.576738
0.57674
0.576742
0.576743
0.576745
0.576745
0.576747
0.576749
0.576751
0.576753
0.576753
0.576755
0.576757
0.576759
0.576761
0.576761
0.576763
0.576765
0.576767
0.57677
0.57677
0.576772
0.576774
0.576776
0.576778
0.576778
0.57678
0.576782
0.576784
0.576786
0.576786
0.576788
0.57679
0.576792
0.576795
0.576795
0.576797
0.576799
0.576801
0.576803
0.576803
0.576805
0.576807
0.57681
0.576812
0.576812
0.576814
0.576816
0.576818
0.57682
0.57682
0.576823
0.576825
0.576827
0.576829
0.576829
0.576831
0.576834
0.576836
0.576838
0.576838
0.57684
0.576843
0.576845
0.576847
0.576847
0.576849
0.576852
0.576854
0.576856
0.576856
0.576859
0.576861
0.576863
0.576865
0.576865
0.576868
0.57687
0.576872
0.576875
0.576875
0.576877
0.576879
0.576882
0.576884
0.576884
0.576887
0.576889
0.576891
0.576894
0.576894
0.576896
0.576899
0.576901
0.576903
0.576903
0.576906
0.576908
0.576911
0.576913
0.576913
0.576916
0.576918
0.57692
0.576923
0.576923
0.576925
0.576928
0.57693
0.576933
0.576933
0.576935
0.576938
0.57694
0.576943
0.576943
0.576945
0.576948
0.57695
0.576953
0.576953
0.576956
0.576958
0.576961
0.576963
0.576963
0.576966
0.576968
0.576971
0.576974
0.576974
0.576976
0.576979
0.576981
0.576984
0.576984
0.576987
0.576989
0.576992
0.576994
0.576994
0.576997
0.577
0.577002
0.577005
0.577005
0.577008
0.57701
0.577013
0.577016
0.577016
0.577019
0.577021
0.577024
0.577027
0.577027
0.577029
0.577032
0.577035
0.577038
0.577038
0.57704
0.577043
0.577046
0.577049
0.577049
0.577051
0.577054
0.577057
0.57706
0.57706
0.577063
0.577065
0.577068
0.577071
0.577071
0.577074
0.577077
0.57708
0.577082
0.577082
0.577085
0.577088
0.577091
0.577094
0.577094
0.577097
0.5771
0.577103
0.577105
0.577105
0.577108
0.577111
0.577114
0.577117
0.577117
0.57712
0.577123
0.577126
0.577129
0.577129
0.577132
0.577135
0.577138
0.577141
0.577141
0.577144
0.577147
0.57715
0.577153
0.577153
0.577156
0.577159
0.577162
0.577165
0.577165
0.577168
0.577171
0.577174
0.577177
0.577177
0.57718
0.577183
0.577186
0.577189
0.577189
0.577192
0.577195
0.577199
0.577202
0.577202
0.577205
0.577208
0.577211
0.577214
0.577214
0.577217
0.57722
0.577224
0.577227
0.577227
0.57723
0.577233
0.577236
0.57724
0.57724
0.577243
0.577246
0.577249
0.577252
0.577252
0.577256
0.577259
0.577262
0.577265
0.577265
0.577269
0.577272
0.577275
0.577278
0.577278
0.577282
0.577285
0.577288
0.577291
0.577291
0.577295
0.577298
0.577301
0.577305
0.577305
0.577308
0.577311
0.577315
0.577318
0.577318
0.577321
0.577325
0.577328
0.577332
0.577332
0.577335
0.577338
0.577342
0.577345
0.577345
0.577349
0.577352
0.577355
0.577359
0.577359
0.577362
0.577366
0.577369
0.577373
0.577373
0.577376
0.57738
0.577383
0.577386
0.577386
0.57739
0.577393
0.577397
0.577401
0.577401
0.577404
0.577408
0.577411
0.577415
0.577415
0.577418
0.577422
0.577425
0.577429
0.577429
0.577432
0.577436
0.57744
0.577443
0.577443
0.577447
0.57745
0.577454
0.577458
0.577458
0.577461
0.577465
0.577469
0.577472
0.577472
0.577476
0.57748
0.577483
0.577487
0.577487
0.577491
0.577494
0.577498
0.577502
0.577502
0.577505
0.577509
0.577513
0.577517
0.577517
0.57752
0.577524
0.577528
0.577532
0.577532
0.577535
0.577539
0.577543
0.577547
0.577547
0.57755
0.577554
0.577558
0.577562
0.577562
0.577566
0.57757
0.577573
0.577577
0.577577
0.577581
0.577585
0.577589
0.577593
0.577593
0.577596
0.5776
0.577604
0.577608
0.577608
0.577612
0.577616
0.57762
0.577624
0.577624
0.577628
0.577631
0.577635
0.577639
0.577639
0.577643
0.577647
0.577651
0.577655
0.577655
0.577659
0.577664
0.577668
0.577672
0.577672
0.577676
0.57768
0.577684
0.577688
0.577688
0.577692
0.577696
0.5777
0.577704
0.577704
0.577708
0.577712
0.577716
0.57772
0.57772
0.577725
0.577729
0.577733
0.577737
0.577737
0.577741
0.577745
0.577749
0.577754
0.577754
0.577758
0.577762
0.577766
0.57777
0.57777
0.577774
0.577779
0.577783
0.577787
0.577787
0.577791
0.577796
0.5778
0.577804
0.577804
0.577808
0.577813
0.577817
0.577821
0.577821
0.577825
0.57783
0.577834
0.577838
0.577838
0.577843
0.577847
0.577851
0.577856
0.577856
0.57786
0.577864
0.577869
0.577873
0.577873
0.577877
0.577882
0.577886
0.577891
0.577891
0.577895
0.577899
0.577904
0.577908
0.577908
0.577913
0.577917
0.577921
0.577926
0.577926
0.57793
0.577935
0.577939
0.577944
0.577944
0.577948
0.577953
0.577957
0.577962
0.577962
0.577966
0.577971
0.577975
0.57798
0.57798
0.577984
0.577989
0.577994
0.577998
0.577998
0.578003
0.578007
0.578012
0.578017
0.578017
0.578021
0.578026
0.57803
0.578035
0.578035
0.57804
0.578044
0.578049
0.578054
0.578054
0.578058
0.578063
0.578068
0.578072
0.578072
0.578077
0.578082
0.578087
0.578091
0.578091
0.578096
0.578101
0.578105
0.57811
0.57811
0.578115
0.57812
0.578125
0.578129
0.578129
0.578134
0.578139
0.578144
0.578149
0.578149
0.578153
0.578158
0.578163
0.578168
0.578168
0.578173
0.578178
0.578182
0.578187
0.578187
0.578192
0.578197
0.578202
0.578207
0.578207
0.578212
0.578217
0.578222
0.578227
0.578227
0.578232
0.578237
0.578242
0.578246
0.578246
0.578251
0.578256
0.578261
0.578266
0.578266
0.578271
0.578276
0.578282
0.578287
0.578287
0.578292
0.578297
0.578302
0.578307
0.578307
0.578312
0.578317
0.578322
0.578327
0.578327
0.578332
0.578337
0.578342
0.578348
0.578348
0.578353
0.578358
0.578363
0.578368
0.578368
0.578373
0.578379
0.578384
0.578389
0.578389
0.578394
0.578399
0.578404
0.57841
0.57841
0.578415
0.57842
0.578425
0.578431
0.578431
0.578436
0.578441
0.578447
0.578452
0.578452
0.578457
0.578462
0.578468
0.578473
0.578473
0.578478
0.578484
0.578489
0.578494
0.578494
0.5785
0.578505
0.57851
0.578516
0.578516
0.578521
0.578527
0.578532
0.578537
0.578537
0.578543
0.578548
0.578554
0.578559
0.578559
0.578565
0.57857
0.578576
0.578581
0.578581
0.578587
0.578592
0.578597
0.578603
0.578603
0.578608
0.578614
0.578619
0.578625
0.578625
0.578631
0.578636
0.578642
0.578647
0.578647
0.578653
0.578658
0.578664
0.57867
0.57867
0.578675
0.578681
0.578687
0.578692
0.578692
0.578698
0.578704
0.578709
0.578715
0.578715
0.578721
0.578726
0.578732
0.578738
0.578738
0.578744
0.578749
0.578755
0.578761
0.578761
0.578767
0.578772
0.578778
0.578784
0.578784
0.57879
0.578796
0.578801
0.578807
0.578807
0.578813
0.578819
0.578825
0.578831
0.578831
0.578836
0.578842
0.578848
0.578854
0.578854
0.57886
0.578866
0.578872
0.578878
0.578878
0.578884
0.57889
0.578895
0.578901
0.578901
0.578907
0.578913
0.578919
0.578925
0.578925
0.578931
0.578937
0.578943
0.578949
0.578949
0.578955
0.578961
0.578967
0.578973
0.578973
0.57898
0.578986
0.578992
0.578998
0.578998
0.579004
0.57901
0.579016
0.579022
0.579022
0.579028
0.579035
0.579041
0.579047
0.579047
0.579053
0.579059
0.579065
0.579072
0.579072
0.579078
0.579084
0.57909
0.579096
0.579096
0.579103
0.579109
0.579115
0.579121
0.579121
0.579128
0.579134
0.57914
0.579147
0.579147
0.579153
0.579159
0.579165
0.579172
0.579172
0.579178
0.579185
0.579191
0.579197
0.579197
0.579204
0.57921
0.579216
0.579223
0.579223
0.579229
0.579236
0.579242
0.579249
0.579249
0.579255
0.579261
0.579268
0.579274
0.579274
0.579281
0.579287
0.579294
0.5793
0.5793
0.579307
0.579313
0.57932
0.579327
0.579327
0.579333
0.57934
0.579346
0.579353
0.579353
0.579359
0.579366
0.579373
0.579379
0.579379
0.579386
0.579393
0.579399
0.579406
0.579406
0.579413
0.579419
0.579426
0.579433
0.579433
0.579439
0.579446
0.579453
0.579459
0.579459
0.579466
0.579473
0.57948
0.579486
0.579486
0.579493
0.5795
0.579507
0.579514
0.579514
0.57952
0.579527
0.579534
0.579541
0.579541
0.579548
0.579555
0.579562
0.579568
0.579568
0.579575
0.579582
0.579589
0.579596
0.579596
0.579603
0.57961
0.579617
0.579624
0.579624
0.579631
0.579638
0.579645
0.579652
0.579652
0.579659
0.579666
0.579673
0.57968
0.57968
0.579687
0.579694
0.579701
0.579708
0.579708
0.579715
0.579722
0.579729
0.579736
0.579736
0.579743
0.57975
0.579757
0.579764
0.579764
0.579772
0.579779
0.579786
0.579793
0.579793
0.5798
0.579808
0.579815
0.579822
0.579822
0.579829
0.579837
0.579844
0.579851
0.579851
0.579859
0.579866
0.579873
0.57988
0.57988
0.579888
0.579895
0.579902
0.57991
0.57991
0.579917
0.579924
0.579932
0.579939
0.579939
0.579947
0.579954
0.579961
0.579969
0.579969
0.579976
0.579984
0.579991
0.579999
0.579999
0.580006
0.580014
0.580021
0.580028
0.580028
0.580036
0.580044
0.580051
0.580059
0.580059
0.580066
0.580074
0.580081
0.580089
0.580089
0.580096
0.580104
0.580112
0.580119
0.580119
0.580127
0.580134
0.580142
0.58015
0.58015
0.580157
0.580165
0.580173
0.58018
0.58018
0.580188
0.580196
0.580204
0.580211
0.580211
0.580219
0.580227
0.580235
0.580242
0.580242
0.58025
0.580258
0.580266
0.580274
0.580274
0.580281
0.580289
0.580297
0.580305
0.580305
0.580313
0.580321
0.580329
0.580336
0.580336
0.580344
0.580352
0.58036
0.580368
0.580368
0.580376
0.580384
0.580392
0.5804
0.5804
0.580408
0.580416
0.580424
0.580432
0.580432
0.58044
0.580448
0.580456
0.580464
0.580464
0.580472
0.58048
0.580488
0.580497
0.580497
0.580505
0.580513
0.580521
0.580529
0.580529
0.580537
0.580545
0.580554
0.580562
0.580562
0.58057
0.580578
0.580586
0.580595
0.580595
0.580603
0.580611
0.580619
0.580628
0.580628
0.580636
0.580644
0.580653
0.580661
0.580661
0.580669
0.580677
0.580686
0.580694
0.580694
0.580703
0.580711
0.580719
0.580728
0.580728
0.580736
0.580745
0.580753
0.580761
0.580761
0.58077
0.580778
0.580787
0.580795
0.580795
0.580804
0.580812
0.580821
0.580829
0.580829
0.580838
0.580846
0.580855
0.580863
0.580863
0.580872
0.58088
0.580889
0.580897
0.580897
0.580906
0.580915
0.580923
0.580932
0.580932
0.580941
0.580949
0.580958
0.580967
0.580967
0.580976
0.580984
0.580993
0.581002
0.581002
0.581011
0.581019
0.581028
0.581037
0.581037
0.581046
0.581055
0.581064
0.581072
0.581072
0.581081
0.58109
0.581099
0.581108
0.581108
0.581117
0.581126
0.581135
0.581144
0.581144
0.581153
0.581161
0.58117
0.581179
0.581179
0.581188
0.581197
0.581206
0.581215
0.581215
0.581224
0.581233
0.581243
0.581252
0.581252
0.581261
0.58127
0.581279
0.581288
0.581288
0.581297
0.581306
0.581315
0.581324
0.581324
0.581334
0.581343
0.581352
0.581361
0.581361
0.58137
0.58138
0.581389
0.581398
0.581398
0.581407
0.581417
0.581426
0.581435
0.581435
0.581444
0.581454
0.581463
0.581472
0.581472
0.581482
0.581491
0.5815
0.58151
0.58151
0.581519
0.581529
0.581538
0.581548
0.581548
0.581557
0.581566
0.581576
0.581585
0.581585
0.581595
0.581604
0.581614
0.581623
0.581623
0.581633
0.581642
0.581652
0.581662
0.581662
0.581671
0.581681
0.58169
0.5817
0.5817
0.58171
0.581719
0.581729
0.581739
0.581739
0.581748
0.581758
0.581768
0.581777
0.581777
0.581787
0.581797
0.581806
0.581816
0.581816
0.581826
0.581836
0.581846
0.581855
0.581855
0.581865
0.581875
0.581885
0.581895
0.581895
0.581905
0.581914
0.581924
0.581934
0.581934
0.581944
0.581954
0.581964
0.581974
0.581974
0.581984
0.581994
0.582004
0.582014
0.582014
0.582024
0.582034
0.582044
0.582054
0.582054
0.582064
0.582074
0.582084
0.582094
0.582094
0.582104
0.582114
0.582124
0.582134
0.582134
0.582145
0.582155
0.582165
0.582175
0.582175
0.582185
0.582195
0.582206
0.582216
0.582216
0.582226
0.582237
0.582247
0.582257
0.582257
0.582268
0.582278
0.582288
0.582299
0.582299
0.582309
0.58232
0.58233
0.58234
0.58234
0.582351
0.582361
0.582372
0.582382
0.582382
0.582393
0.582403
0.582414
0.582424
0.582424
0.582435
0.582445
0.582456
0.582466
0.582466
0.582477
0.582487
0.582498
0.582509
0.582509
0.582519
0.58253
0.58254
0.582551
0.582551
0.582562
0.582572
0.582583
0.582594
0.582594
0.582605
0.582615
0.582626
0.582637
0.582637
0.582648
0.582658
0.582669
0.58268
0.58268
0.582691
0.582702
0.582712
0.582723
0.582723
0.582734
0.582745
0.582756
0.582767
0.582767
0.582778
0.582789
0.5828
0.582811
0.582811
0.582822
0.582833
0.582844
0.582855
0.582855
0.582866
0.582877
0.582888
0.582899
0.582899
0.58291
0.582921
0.582932
0.582943
0.582943
0.582954
0.582966
0.582977
0.582988
0.582988
0.582999
0.58301
0.583022
0.583033
0.583033
0.583044
0.583055
0.583067
0.583078
0.583078
0.583089
0.5831
0.583112
0.583123
0.583123
0.583134
0.583146
0.583157
0.583169
0.583169
0.58318
0.583191
0.583203
0.583214
0.583214
0.583226
0.583237
0.583249
0.58326
0.58326
0.583272
0.583283
0.583295
0.583306
0.583306
0.583318
0.583329
0.583341
0.583353
0.583353
0.583364
0.583376
0.583387
0.583399
0.583399
0.583411
0.583422
0.583434
0.583446
0.583446
0.583457
0.583469
0.583481
0.583492
0.583492
0.583504
0.583516
0.583528
0.58354
0.58354
0.583552
0.583564
0.583576
0.583587
0.583587
0.583599
0.583611
0.583623
0.583635
0.583635
0.583647
0.583659
0.583671
0.583683
0.583683
0.583695
0.583708
0.58372
0.583732
0.583732
0.583744
0.583756
0.583768
0.58378
0.58378
0.583792
0.583804
0.583817
0.583829
0.583829
0.583841
0.583853
0.583865
0.583878
0.583878
0.58389
0.583902
0.583914
0.583927
0.583927
0.583939
0.583951
0.583964
0.583976
0.583976
0.583988
0.584001
0.584013
0.584026
0.584026
0.584038
0.58405
0.584063
0.584075
0.584075
0.584088
0.5841
0.584113
0.584125
0.584125
0.584138
0.58415
0.584163
0.584176
0.584176
0.584188
0.584201
0.584213
0.584226
0.584226
0.584239
0.584251
0.584264
0.584277
0.584277
0.58429
0.584302
0.584315
0.584328
0.584328
0.584341
0.584353
0.584366
0.584379
0.584379
0.584392
0.584405
0.584418
0.58443
0.58443
0.584443
0.584456
0.584469
0.584482
0.584482
0.584495
0.584508
0.584521
0.584534
0.584534
0.584547
0.58456
0.584573
0.584586
0.584586
0.584599
0.584612
0.584626
0.584639
0.584639
0.584652
0.584665
0.584678
0.584691
0.584691
0.584704
0.584718
0.584731
0.584744
0.584744
0.584757
0.584771
0.584784
0.584797
0.584797
0.58481
0.584824
0.584837
0.58485
0.58485
0.584864
0.584877
0.58489
0.584904
0.584904
0.584917
0.584931
0.584944
0.584958
0.584958
0.584971
0.584985
0.584999
0.585012
0.585012
0.585026
0.585039
0.585053
0.585067
0.585067
0.58508
0.585094
0.585108
0.585122
0.585122
0.585135
0.585149
0.585163
0.585177
0.585177
0.58519
0.585204
0.585218
0.585232
0.585232
0.585246
0.58526
0.585273
0.585287
0.585287
0.585301
0.585315
0.585329
0.585343
0.585343
0.585357
0.585371
0.585385
0.585399
0.585399
0.585413
0.585427
0.585441
0.585455
0.585455
0.585469
0.585483
0.585498
0.585512
0.585512
0.585526
0.58554
0.585554
0.585568
0.585568
0.585583
0.585597
0.585611
0.585625
0.585625
0.58564
0.585654
0.585668
0.585683
0.585683
0.585697
0.585711
0.585726
0.58574
0.58574
0.585755
0.585769
0.585784
0.585798
0.585798
0.585813
0.585827
0.585842
0.585856
0.585856
0.585871
0.585885
0.5859
0.585915
0.585915
0.585929
0.585944
0.585958
0.585973
0.585973
0.585988
0.586003
0.586017
0.586032
0.586032
0.586047
0.586062
0.586076
0.586091
0.586091
0.586106
0.586121
0.586136
0.586151
0.586151
0.586165
0.58618
0.586195
0.58621
0.58621
0.586225
0.58624
0.586255
0.58627
0.58627
0.586285
0.5863
0.586315
0.58633
0.58633
0.586345
0.58636
0.586375
0.58639
0.58639
0.586405
0.586421
0.586436
0.586451
0.586451
0.586466
0.586482
0.586497
0.586512
0.586512
0.586528
0.586543
0.586559
0.586574
0.586574
0.586589
0.586605
0.58662
0.586636
0.586636
0.586651
0.586667
0.586682
0.586698
0.586698
0.586713
0.586729
0.586745
0.58676
0.58676
0.586776
0.586791
0.586807
0.586823
0.586823
0.586838
0.586854
0.58687
0.586886
0.586886
0.586901
0.586917
0.586933
0.586949
0.586949
0.586964
0.58698
0.586996
0.587012
0.587012
0.587028
0.587044
0.58706
0.587076
0.587076
0.587092
0.587108
0.587124
0.58714
0.58714
0.587156
0.587172
0.587188
0.587204
0.587204
0.58722
0.587236
0.587252
0.587268
0.587268
0.587285
0.587301
0.587317
0.587333
0.587333
0.58735
0.587366
0.587382
0.587398
0.587398
0.587415
0.587431
0.587448
0.587464
0.587464
0.58748
0.587497
0.587513
0.58753
0.58753
0.587546
0.587563
0.587579
0.587596
0.587596
0.587612
0.587629
0.587645
0.587662
0.587662
0.587679
0.587695
0.587712
0.587729
0.587729
0.587745
0.587762
0.587779
0.587795
0.587795
0.587812
0.587829
0.587846
0.587862
0.587862
0.587879
0.587896
0.587913
0.58793
0.58793
0.587947
0.587964
0.587981
0.587997
0.587997
0.588014
0.588031
0.588049
0.588066
0.588066
0.588083
0.5881
0.588117
0.588134
0.588134
0.588152
0.588169
0.588186
0.588203
0.588203
0.588221
0.588238
0.588255
0.588273
0.588273
0.58829
0.588307
0.588325
0.588342
0.588342
0.58836
0.588377
0.588395
0.588412
0.588412
0.58843
0.588447
0.588465
0.588482
0.588482
0.5885
0.588517
0.588535
0.588552
0.588552
0.58857
0.588588
0.588606
0.588623
0.588623
0.588641
0.588659
0.588676
0.588694
0.588694
0.588712
0.58873
0.588748
0.588766
0.588766
0.588783
0.588801
0.588819
0.588837
0.588837
0.588855
0.588873
0.588891
0.588909
0.588909
0.588927
0.588945
0.588963
0.588982
0.588982
0.589
0.589018
0.589036
0.589054
0.589054
0.589072
0.589091
0.589109
0.589127
0.589127
0.589145
0.589164
0.589182
0.5892
0.5892
0.589219
0.589237
0.589256
0.589274
0.589274
0.589292
0.589311
0.589329
0.589348
0.589348
0.589366
0.589385
0.589404
0.589422
0.589422
0.589441
0.589459
0.589478
0.589497
0.589497
0.589515
0.589534
0.589553
0.589571
0.589571
0.58959
0.589609
0.589628
0.589646
0.589646
0.589665
0.589684
0.589703
0.589722
0.589722
0.589741
0.58976
0.589779
0.589798
0.589798
0.589817
0.589836
0.589856
0.589875
0.589875
0.589894
0.589913
0.589932
0.589952
0.589952
0.589971
0.58999
0.590009
0.590029
0.590029
0.590048
0.590067
0.590087
0.590106
0.590106
0.590126
0.590145
0.590164
0.590184
0.590184
0.590203
0.590223
0.590242
0.590262
0.590262
0.590282
0.590301
0.590321
0.59034
0.59034
0.59036
0.59038
0.5904
0.590419
0.590419
0.590439
0.590459
0.590479
0.590498
0.590498
0.590518
0.590538
0.590558
0.590578
0.590578
0.590598
0.590618
0.590638
0.590658
0.590658
0.590678
0.590698
0.590718
0.590738
0.590738
0.590758
0.590778
0.590798
0.590818
0.590818
0.590839
0.590859
0.590879
0.590899
0.590899
0.59092
0.59094
0.59096
0.59098
0.59098
0.591001
0.591021
0.591042
0.591062
0.591062
0.591083
0.591103
0.591123
0.591144
0.591144
0.591164
0.591185
0.591206
0.591226
0.591226
0.591247
0.591267
0.591288
0.591309
0.591309
0.591329
0.59135
0.591371
0.591392
0.591392
0.591412
0.591433
0.591454
0.591475
0.591475
0.591496
0.591517
0.591538
0.591559
0.591559
0.59158
0.591601
0.591622
0.591643
0.591643
0.591664
0.591686
0.591707
0.591728
0.591728
0.591749
0.59177
0.591792
0.591813
0.591813
0.591834
0.591856
0.591877
0.591899
0.591899
0.59192
0.591941
0.591963
0.591984
0.591984
0.592006
0.592027
0.592049
0.59207
0.59207
0.592092
0.592114
0.592135
0.592157
0.592157
0.592179
0.5922
0.592222
0.592244
0.592244
0.592266
0.592287
0.592309
0.592331
0.592331
0.592353
0.592375
0.592397
0.592419
0.592419
0.592441
0.592463
0.592485
0.592507
0.592507
0.592529
0.592551
0.592573
0.592595
0.592595
0.592617
0.592639
0.592662
0.592684
0.592684
0.592706
0.592728
0.592751
0.592773
0.592773
0.592795
0.592818
0.59284
0.592863
0.592863
0.592885
0.592908
0.59293
0.592953
0.592953
0.592975
0.592998
0.59302
0.593043
0.593043
0.593065
0.593088
0.593111
0.593133
0.593133
0.593156
0.593179
0.593202
0.593224
0.593224
0.593247
0.59327
0.593293
0.593316
0.593316
0.593338
0.593361
0.593384
0.593407
0.593407
0.593431
0.593454
0.593477
0.5935
0.5935
0.593523
0.593547
0.59357
0.593593
0.593593
0.593616
0.59364
0.593663
0.593687
0.593687
0.59371
0.593733
0.593757
0.59378
0.59378
0.593804
0.593827
0.593851
0.593874
0.593874
0.593898
0.593922
0.593945
0.593969
0.593969
0.593993
0.594016
0.59404
0.594064
0.594064
0.594088
0.594111
0.594135
0.594159
0.594159
0.594183
0.594207
0.594231
0.594255
0.594255
0.594279
0.594303
0.594327
0.594351
0.594351
0.594375
0.594399
0.594423
0.594447
0.594447
0.594471
0.594496
0.59452
0.594544
0.594544
0.594569
0.594593
0.594617
0.594642
0.594642
0.594666
0.59469
0.594715
0.594739
0.594739
0.594764
0.594788
0.594813
0.594837
0.594837
0.594862
0.594887
0.594911
0.594936
0.594936
0.594961
0.594985
0.59501
0.595035
0.595035
0.59506
0.595084
0.595109
0.595134
0.595134
0.595159
0.595184
0.595209
0.595234
0.595234
0.595259
0.595284
0.595309
0.595334
0.595334
0.595359
0.595384
0.595409
0.595435
0.595435
0.59546
0.595485
0.595511
0.595536
0.595536
0.595562
0.595587
0.595613
0.595638
0.595638
0.595664
0.595689
0.595715
0.59574
0.59574
0.595766
0.595792
0.595817
0.595843
0.595843
0.595869
0.595895
0.59592
0.595946
0.595946
0.595972
0.595998
0.596024
0.59605
0.59605
0.596076
0.596102
0.596128
0.596154
0.596154
0.59618
0.596206
0.596232
0.596258
0.596258
0.596284
0.59631
0.596337
0.596363
0.596363
0.596389
0.596415
0.596442
0.596468
0.596468
0.596494
0.596521
0.596547
0.596574
0.596574
0.5966
0.596627
0.596653
0.59668
0.59668
0.596706
0.596733
0.59676
0.596786
0.596786
0.596813
0.59684
0.596866
0.596893
0.596893
0.59692
0.596947
0.596974
0.597001
0.597001
0.597028
0.597055
0.597081
0.597108
0.597108
0.597135
0.597162
0.59719
0.597217
0.597217
0.597244
0.597271
0.597298
0.597325
0.597325
0.597352
0.59738
0.597407
0.597434
0.597434
0.597462
0.597489
0.597517
0.597544
0.597544
0.597572
0.5976
0.597627
0.597655
0.597655
0.597683
0.59771
0.597738
0.597766
0.597766
0.597794
0.597822
0.597849
0.597877
0.597877
0.597905
0.597933
0.597961
0.597989
0.597989
0.598017
0.598045
0.598073
0.598101
0.598101
0.59813
0.598158
0.598186
0.598214
0.598214
0.598242
0.598271
0.598299
0.598327
0.598327
0.598356
0.598384
0.598413
0.598441
0.598441
0.598469
0.598498
0.598527
0.598555
0.598555
0.598584
0.598612
0.598641
0.59867
0.59867
0.598698
0.598727
0.598756
0.598785
0.598785
0.598814
0.598842
0.598871
0.5989
0.5989
0.598929
0.598958
0.598987
0.599016
0.599016
0.599045
0.599074
0.599103
0.599133
0.599133
0.599162
0.599191
0.59922
0.599249
0.599249
0.599279
0.599308
0.599337
0.599367
0.599367
0.599396
0.599425
0.599455
0.599484
0.599484
0.599514
0.599543
0.599573
0.599603
0.599603
0.599632
0.599662
0.599692
0.599722
0.599722
0.599752
0.599782
0.599811
0.599841
0.599841
0.599872
0.599902
0.599932
0.599962
0.599962
0.599992
0.600022
0.600052
0.600083
0.600083
0.600113
0.600143
0.600173
0.600204
0.600204
0.600234
0.600264
0.600295
0.600325
0.600325
0.600356
0.600386
0.600417
0.600447
0.600447
0.600478
0.600509
0.600539
0.60057
0.60057
0.600601
0.600631
0.600662
0.600693
0.600693
0.600724
0.600755
0.600786
0.600816
0.600816
0.600847
0.600878
0.600909
0.600941
0.600941
0.600972
0.601003
0.601034
0.601065
0.601065
0.601096
0.601127
0.601159
0.60119
0.60119
0.601221
0.601253
0.601284
0.601316
0.601316
0.601347
0.601378
0.60141
0.601442
0.601442
0.601473
0.601505
0.601536
0.601568
0.601568
0.6016
0.601631
0.601663
0.601695
0.601695
0.601727
0.601758
0.60179
0.601822
0.601822
0.601854
0.601886
0.601918
0.60195
0.60195
0.601982
0.602015
0.602047
0.602079
0.602079
0.602112
0.602144
0.602176
0.602209
0.602209
0.602241
0.602274
0.602306
0.602339
0.602339
0.602371
0.602404
0.602437
0.602469
0.602469
0.602502
0.602535
0.602568
0.6026
0.6026
0.602633
0.602666
0.602699
0.602732
0.602732
0.602765
0.602798
0.602831
0.602864
0.602864
0.602897
0.60293
0.602963
0.602996
0.602996
0.603029
0.603063
0.603096
0.603129
0.603129
0.603163
0.603196
0.603229
0.603263
0.603263
0.603296
0.60333
0.603363
0.603397
0.603397
0.60343
0.603464
0.603498
0.603531
0.603531
0.603565
0.603599
0.603633
0.603666
0.603666
0.6037
0.603734
0.603768
0.603802
0.603802
0.603836
0.60387
0.603904
0.603938
0.603938
0.603972
0.604006
0.60404
0.604075
0.604075
0.604109
0.604143
0.604177
0.604212
0.604212
0.604246
0.60428
0.604315
0.604349
0.604349
0.604384
0.604419
0.604453
0.604488
0.604488
0.604523
0.604558
0.604592
0.604627
0.604627
0.604662
0.604697
0.604732
0.604767
0.604767
0.604802
0.604837
0.604872
0.604908
0.604908
0.604943
0.604978
0.605013
0.605048
0.605048
0.605084
0.605119
0.605154
0.60519
0.60519
0.605225
0.605261
0.605296
0.605332
0.605332
0.605367
0.605403
0.605438
0.605474
0.605474
0.60551
0.605545
0.605581
0.605617
0.605617
0.605653
0.605689
0.605724
0.60576
0.60576
0.605796
0.605832
0.605868
0.605904
0.605904
0.60594
0.605977
0.606013
0.606049
0.606049
0.606085
0.606121
0.606158
0.606194
0.606194
0.60623
0.606267
0.606303
0.60634
0.60634
0.606376
0.606413
0.606449
0.606486
0.606486
0.606522
0.606559
0.606595
0.606632
0.606632
0.606669
0.606706
0.606743
0.606779
0.606779
0.606816
0.606853
0.60689
0.606928
0.606928
0.606965
0.607002
0.607039
0.607077
0.607077
0.607114
0.607151
0.607189
0.607226
0.607226
0.607264
0.607301
0.607339
0.607376
0.607376
0.607414
0.607451
0.607489
0.607527
0.607527
0.607564
0.607602
0.60764
0.607678
0.607678
0.607716
0.607754
0.607791
0.607829
0.607829
0.607867
0.607905
0.607944
0.607982
0.607982
0.60802
0.608058
0.608096
0.608134
0.608134
0.608173
0.608211
0.608249
0.608288
0.608288
0.608326
0.608364
0.608403
0.608441
0.608441
0.60848
0.608519
0.608557
0.608596
0.608596
0.608634
0.608673
0.608712
0.608751
0.608751
0.60879
0.608828
0.608867
0.608906
0.608906
0.608945
0.608984
0.609023
0.609062
0.609062
0.609101
0.60914
0.609179
0.609219
0.609219
0.609258
0.609297
0.609336
0.609376
0.609376
0.609415
0.609455
0.609494
0.609534
0.609534
0.609574
0.609613
0.609653
0.609693
0.609693
0.609733
0.609773
0.609813
0.609852
0.609852
0.609892
0.609932
0.609973
0.610013
0.610013
0.610053
0.610093
0.610133
0.610173
0.610173
0.610213
0.610254
0.610294
0.610334
0.610334
0.610375
0.610415
0.610456
0.610496
0.610496
0.610537
0.610577
0.610618
0.610658
0.610658
0.610699
0.61074
0.61078
0.610821
0.610821
0.610862
0.610903
0.610944
0.610985
0.610985
0.611026
0.611067
0.611108
0.611149
0.611149
0.61119
0.611231
0.611272
0.611313
0.611313
0.611354
0.611396
0.611437
0.611478
0.611478
0.611519
0.611561
0.611602
0.611644
0.611644
0.611685
0.611727
0.611768
0.61181
0.61181
0.611852
0.611893
0.611935
0.611977
0.611977
0.612019
0.61206
0.612102
0.612144
0.612144
0.612186
0.612229
0.612271
0.612313
0.612313
0.612355
0.612397
0.61244
0.612482
0.612482
0.612525
0.612567
0.61261
0.612652
0.612652
0.612695
0.612737
0.61278
0.612822
0.612822
0.612865
0.612908
0.612951
0.612993
0.612993
0.613036
0.613079
0.613122
0.613165
0.613165
0.613208
0.613251
0.613294
0.613337
0.613337
0.61338
0.613423
0.613466
0.61351
0.61351
0.613553
0.613596
0.613639
0.613683
0.613683
0.613726
0.61377
0.613813
0.613857
0.613857
0.6139
0.613944
0.613987
0.614031
0.614031
0.614075
0.614118
0.614162
0.614206
0.614206
0.61425
0.614293
0.614337
0.614381
0.614381
0.614425
0.614469
0.614513
0.614557
0.614557
0.614601
0.614645
0.61469
0.614734
0.614734
0.614778
0.614823
0.614867
0.614911
0.614911
0.614956
0.615001
0.615045
0.61509
0.61509
0.615135
0.615179
0.615224
0.615269
0.615269
0.615314