<?xml version="1.0"?>
<VTKFile type="UnstructuredGrid" version="0.1" byte_order="LittleEndian">
<UnstructuredGrid>
<Piece NumberOfPoints="5000" NumberOfCells="4000">
<PointData Scalars="Reaction 0">
<DataArray type="Float32" Name="Reaction 0" format="ascii">
0.580692
0.580692
0.580692
0.580692
0.580692
0.580692
0.580693
0.580693
0.580693
0.580693
0.580693
0.580693
0.580693
0.580693
0.580693
0.580693
0.580693
0.580693
0.580693
0.580693
0.580693
0.580694
0.580694
0.580694
0.580694
0.580694
0.580694
0.580694
0.580694
0.580695
0.580695
0.580695
0.580695
0.580695
0.580695
0.580695
0.580696
0.580696
0.580696
0.580696
0.580696
0.580697
0.580697
0.580697
0.580697
0.580697
0.580698
0.580698
0.580698
0.580699
0.580699
0.580699
0.580699
0.5807
0.5807
0.5807
0.5807
0.580701
0.580701
0.580701
0.580701
0.580702
0.580702
0.580703
0.580703
0.580703
0.580703
0.580704
0.580704
0.580705
0.580705
0.580705
0.580706
0.580706
0.580707
0.580707
0.580707
0.580707
0.580708
0.580708
0.580708
0.580709
0.580709
0.58071
0.580711
0.580711
0.580711
0.580712
0.580712
0.580713
0.580713
0.580713
0.580714
0.580714
0.580715
0.580715
0.580716
0.580716
0.580717
0.580717
0.580717
0.580718
0.580719
0.580719
0.58072
0.58072
0.580721
0.580721
0.580722
0.580723
0.580723
0.580723
0.580724
0.580725
0.580726
0.580726
0.580726
0.580727
0.580728
0.580729
0.580729
0.580729
0.58073
0.580731
0.580732
0.580732
0.580732
0.580733
0.580734
0.580735
0.580735
0.580736
0.580736
0.580737
0.580738
0.580738
0.580739
0.58074
0.580741
0.580742
0.580742
0.580742
0.580743
0.580744
0.580745
0.580745
0.580746
0.580747
0.580748
0.580749
0.580749
0.58075
0.580751
0.580752
0.580753
0.580753
0.580754
0.580755
0.580756
0.580757
0.580757
0.580758
0.580759
0.58076
0.580761
0.580761
0.580762
0.580763
0.580764
0.580765
0.580765
0.580766
0.580767
0.580768
0.580769
0.580769
0.58077
0.580771
0.580773
0.580774
0.580774
0.580775
0.580776
0.580777
0.580778
0.580778
0.580779
0.580781
0.580782
0.580783
0.580783
0.580784
0.580785
0.580787
0.580788
0.580788
0.580789
0.58079
0.580792
0.580793
0.580793
0.580794
0.580795
0.580797
0.580798
0.580798
0.580799
0.580801
0.580802
0.580803
0.580803
0.580804
0.580806
0.580807
0.580809
0.580809
0.58081
0.580811
0.580813
0.580814
0.580814
0.580815
0.580817
0.580818
0.58082
0.58082
0.580821
0.580822
0.580824
0.580825
0.580825
0.580827
0.580828
0.58083
0.580831
0.580831
0.580833
0.580834
0.580836
0.580837
0.580837
0.580839
0.58084
0.580842
0.580843
0.580843
0.580845
0.580846
0.580848
0.58085
0.58085
0.580851
0.580853
0.580854
0.580856
0.580856
0.580858
0.580859
0.580861
0.580862
0.580862
0.580864
0.580866
0.580867
0.580869
0.580869
0.580871
0.580872
0.580874
0.580876
0.580876
0.580877
0.580879
0.580881
0.580883
0.580883
0.580884
0.580886
0.580888
0.58089
0.58089
0.580891
0.580893
0.580895
0.580897
0.580897
0.580899
0.5809
0.580902
0.580904
0.580904
0.580906
0.580908
0.58091
0.580911
0.580911
0.580913
0.580915
0.580917
0.580919
0.580919
0.580921
0.580923
0.580925
0.580927
0.580927
0.580929
0.580931
0.580932
0.580934
0.580934
0.580936
0.580938
0.58094
0.580942
0.580942
0.580944
0.580946
0.580948
0.58095
0.58095
0.580952
0.580954
0.580957
0.580959
0.580959
0.580961
0.580963
0.580965
0.580967
0.580967
0.580969
0.580971
0.580973
0.580975
0.580975
0.580977
0.58098
0.580982
0.580984
0.580984
0.580986
0.580988
0.58099
0.580993
0.580993
0.580995
0.580997
0.580999
0.581001
0.581001
0.581004
0.581006
0.581008
0.58101
0.58101
0.581013
0.581015
0.581017
0.581019
0.581019
0.581022
0.581024
0.581026
0.581028
0.581028
0.581031
0.581033
0.581035
0.581038
0.581038
0.58104
0.581042
0.581045
0.581047
0.581047
0.58105
0.581052
0.581054
0.581057
0.581057
0.581059
0.581062
0.581064
0.581067
0.581067
0.581069
0.581072
0.581074
0.581077
0.581077
0.581079
0.581082
0.581084
0.581087
0.581087
0.581089
0.581092
0.581094
0.581097
0.581097
0.581099
0.581102
0.581104
0.581107
0.581107
0.58111
0.581112
0.581115
0.581117
0.581117
0.58112
0.581123
0.581125
0.581128
0.581128
0.581131
0.581133
0.581136
0.581139
0.581139
0.581141
0.581144
0.581147
0.581149
0.581149
0.581152
0.581155
0.581158
0.58116
0.58116
0.581163
0.581166
0.581169
0.581171
0.581171
0.581174
0.581177
0.58118
0.581183
0.581183
0.581185
0.581188
0.581191
0.581194
0.581194
0.581197
0.5812
0.581203
0.581205
0.581205
0.581208
0.581211
0.581214
0.581217
0.581217
0.58122
0.581223
0.581226
0.581229
0.581229
0.581232
0.581235
0.581238
0.581241
0.581241
0.581244
0.581247
0.58125
0.581253
0.581253
0.581256
0.581259
0.581262
0.581265
0.581265
0.581268
0.581271
0.581274
0.581277
0.581277
0.58128
0.581283
0.581286
0.581289
0.581289
0.581293
0.581296
0.581299
0.581302
0.581302
0.581305
0.581308
0.581311
0.581315
0.581315
0.581318
0.581321
0.581324
0.581327
0.581327
0.581331
0.581334
0.581337
0.58134
0.58134
0.581344
0.581347
0.58135
0.581353
0.581353
0.581357
0.58136
0.581363
0.581367
0.581367
0.58137
0.581373
0.581377
0.58138
0.58138
0.581383
0.581387
0.58139
0.581393
0.581393
0.581397
0.5814
0.581404
0.581407
0.581407
0.581411
0.581414
0.581417
0.581421
0.581421
0.581424
0.581428
0.581431
0.581435
0.581435
0.581438
0.581442
0.581445
0.581449
0.581449
0.581452
0.581456
0.581459
0.581463
0.581463
0.581467
0.58147
0.581474
0.581477
0.581477
0.581481
0.581485
0.581488
0.581492
0.581492
0.581495
0.581499
0.581503
0.581506
0.581506
0.58151
0.581514
0.581517
0.581521
0.581521
0.581525
0.581529
0.581532
0.581536
0.581536
0.58154
0.581543
0.581547
0.581551
0.581551
0.581555
0.581559
0.581562
0.581566
0.581566
0.58157
0.581574
0.581578
0.581581
0.581581
0.581585
0.581589
0.581593
0.581597
0.581597
0.581601
0.581605
0.581609
0.581612
0.581612
0.581616
0.58162
0.581624
0.581628
0.581628
0.581632
0.581636
0.58164
0.581644
0.581644
0.581648
0.581652
0.581656
0.58166
0.58166
0.581664
0.581668
0.581672
0.581676
0.581676
0.58168
0.581684
0.581688
0.581692
0.581692
0.581696
0.581701
0.581705
0.581709
0.581709
0.581713
0.581717
0.581721
0.581725
0.581725
0.58173
0.581734
0.581738
0.581742
0.581742
0.581746
0.58175
0.581755
0.581759
0.581759
0.581763
0.581767
0.581772
0.581776
0.581776
0.58178
0.581784
0.581789
0.581793
0.581793
0.581797
0.581802
0.581806
0.58181
0.58181
0.581815
0.581819
0.581823
0.581828
0.581828
0.581832
0.581836
0.581841
0.581845
0.581845
0.58185
0.581854
0.581859
0.581863
0.581863
0.581867
0.581872
0.581876
0.581881
0.581881
0.581885
0.58189
0.581894
0.581899
0.581899
0.581903
0.581908
0.581912
0.581917
0.581917
0.581922
0.581926
0.581931
0.581935
0.581935
0.58194
0.581944
0.581949
0.581954
0.581954
0.581958
0.581963
0.581968
0.581972
0.581972
0.581977
0.581982
0.581986
0.581991
0.581991
0.581996
0.582
0.582005
0.58201
0.58201
0.582015
0.582019
0.582024
0.582029
0.582029
0.582034
0.582039
0.582043
0.582048
0.582048
0.582053
0.582058
0.582063
0.582067
0.582067
0.582072
0.582077
0.582082
0.582087
0.582087
0.582092
0.582097
0.582102
0.582107
0.582107
0.582111
0.582116
0.582121
0.582126
0.582126
0.582131
0.582136
0.582141
0.582146
0.582146
0.582151
0.582156
0.582161
0.582166
0.582166
0.582171
0.582176
0.582181
0.582186
0.582186
0.582192
0.582197
0.582202
0.582207
0.582207
0.582212
0.582217
0.582222
0.582227
0.582227
0.582232
0.582238
0.582243
0.582248
0.582248
0.582253
0.582258
0.582264
0.582269
0.582269
0.582274
0.582279
0.582284
0.58229
0.58229
0.582295
0.5823
0.582305
0.582311
0.582311
0.582316
0.582321
0.582326
0.582332
0.582332
0.582337
0.582342
0.582348
0.582353
0.582353
0.582359
0.582364
0.582369
0.582375
0.582375
0.58238
0.582386
0.582391
0.582397
0.582397
0.582402
0.582408
0.582413
0.582419
0.582419
0.582424
0.58243
0.582435
0.582441
0.582441
0.582446
0.582452
0.582457
0.582463
0.582463
0.582469
0.582474
0.58248
0.582485
0.582485
0.582491
0.582497
0.582502
0.582508
0.582508
0.582514
0.582519
0.582525
0.582531
0.582531
0.582536
0.582542
0.582548
0.582553
0.582553
0.582559
0.582565
0.582571
0.582576
0.582576
0.582582
0.582588
0.582594
0.582599
0.582599
0.582605
0.582611
0.582617
0.582623
0.582623
0.582629
0.582634
0.58264
0.582646
0.582646
0.582652
0.582658
0.582664
0.58267
0.58267
0.582676
0.582682
0.582688
0.582694
0.582694
0.5827
0.582706
0.582712
0.582718
0.582718
0.582724
0.58273
0.582736
0.582742
0.582742
0.582748
0.582754
0.58276
0.582766
0.582766
0.582772
0.582778
0.582784
0.58279
0.58279
0.582796
0.582802
0.582809
0.582815
0.582815
0.582821
0.582827
0.582833
0.58284
0.58284
0.582846
0.582852
0.582858
0.582864
0.582864
0.582871
0.582877
0.582883
0.582889
0.582889
0.582896
0.582902
0.582908
0.582915
0.582915
0.582921
0.582927
0.582934
0.58294
0.58294
0.582946
0.582953
0.582959
0.582966
0.582966
0.582972
0.582978
0.582985
0.582991
0.582991
0.582998
0.583004
0.583011
0.583017
0.583017
0.583024
0.58303
0.583037
0.583043
0.583043
0.58305
0.583056
0.583063
0.583069
0.583069
0.583076
0.583082
0.583089
0.583096
0.583096
0.583102
0.583109
0.583116
0.583122
0.583122
0.583129
0.583136
0.583142
0.583149
0.583149
0.583156
0.583162
0.583169
0.583176
0.583176
0.583182
0.583189
0.583196
0.583203
0.583203
0.58321
0.583216
0.583223
0.58323
0.58323
0.583237
0.583244
0.58325
0.583257
0.583257
0.583264
0.583271
0.583278
0.583285
0.583285
0.583292
0.583299
0.583306
0.583313
0.583313
0.583319
0.583326
0.583333
0.58334
0.58334
0.583347
0.583354
0.583361
0.583368
0.583368
0.583375
0.583382
0.58339
0.583397
0.583397
0.583404
0.583411
0.583418
0.583425
0.583425
0.583432
0.583439
0.583446
0.583454
0.583454
0.583461
0.583468
0.583475
0.583482
0.583482
0.583489
0.583497
0.583504
0.583511
0.583511
0.583518
0.583526
0.583533
0.58354
0.58354
0.583547
0.583555
0.583562
0.583569
0.583569
0.583577
0.583584
0.583591
0.583599
0.583599
0.583606
0.583614
0.583621
0.583628
0.583628
0.583636
0.583643
0.583651
0.583658
0.583658
0.583665
0.583673
0.58368
0.583688
0.583688
0.583695
0.583703
0.58371
0.583718
0.583718
0.583725
0.583733
0.58374
0.583748
0.583748
0.583756
0.583763
0.583771
0.583779
0.583779
0.583786
0.583794
0.583802
0.583809
0.583809
0.583817
0.583825
0.583833
0.58384
0.58384
0.583848
0.583856
0.583864
0.583871
0.583871
0.583879
0.583887
0.583895
0.583903
0.583903
0.58391
0.583918
0.583926
0.583934
0.583934
0.583942
0.58395
0.583958
0.583965
0.583965
0.583973
0.583981
0.583989
0.583997
0.583997
0.584005
0.584013
0.584021
0.584029
0.584029
0.584037
0.584045
0.584053
0.584061
0.584061
0.584069
0.584077
0.584085
0.584093
0.584093
0.584101
0.58411
0.584118
0.584126
0.584126
0.584134
0.584142
0.58415
0.584158
0.584158
0.584167
0.584175
0.584183
0.584191
0.584191
0.584199
0.584208
0.584216
0.584224
0.584224
0.584233
0.584241
0.584249
0.584257
0.584257
0.584266
0.584274
0.584282
0.584291
0.584291
0.584299
0.584308
0.584316
0.584324
0.584324
0.584333
0.584341
0.58435
0.584358
0.584358
0.584366
0.584375
0.584383
0.584392
0.584392
0.5844
0.584409
0.584418
0.584426
0.584426
0.584435
0.584443
0.584452
0.58446
0.58446
0.584469
0.584478
0.584486
0.584495
0.584495
0.584503
0.584512
0.584521
0.58453
0.58453
0.584538
0.584547
0.584556
0.584564
0.584564
0.584573
0.584582
0.584591
0.584599
0.584599
0.584608
0.584617
0.584626
0.584635
0.584635
0.584644
0.584652
0.584661
0.58467
0.58467
0.584679
0.584688
0.584697
0.584706
0.584706
0.584715
0.584724
0.584733
0.584742
0.584742
0.584751
0.58476
0.584769
0.584778
0.584778
0.584787
0.584796
0.584805
0.584814
0.584814
0.584823
0.584832
0.584841
0.58485
0.58485
0.584859
0.584868
0.584878
0.584887
0.584887
0.584896
0.584905
0.584914
0.584924
0.584924
0.584933
0.584942
0.584951
0.584961
0.584961
0.58497
0.584979
0.584988
0.584998
0.584998
0.585007
0.585016
0.585026
0.585035
0.585035
0.585044
0.585054
0.585063
0.585073
0.585073
0.585082
0.585091
0.585101
0.58511
0.58511
0.58512
0.585129
0.585139
0.585148
0.585148
0.585158
0.585167
0.585177
0.585186
0.585186
0.585196
0.585205
0.585215
0.585224
0.585224
0.585234
0.585244
0.585253
0.585263
0.585263
0.585273
0.585283
0.585292
0.585302
0.585302
0.585312
0.585322
0.585331
0.585341
0.585341
0.585351
0.585361
0.585371
0.58538
0.58538
0.58539
0.5854
0.58541
0.58542
0.58542
0.58543
0.58544
0.58545
0.58546
0.58546
0.585469
0.585479
0.585489
0.585499
0.585499
0.585509
0.585519
0.585529
0.585539
0.585539
0.585549
0.585559
0.58557
0.58558
0.58558
0.58559
0.5856
0.58561
0.58562
0.58562
0.58563
0.58564
0.585651
0.585661
0.585661
0.585671
0.585681
0.585691
0.585702
0.585702
0.585712
0.585722
0.585732
0.585743
0.585743
0.585753
0.585763
0.585774
0.585784
0.585784
0.585794
0.585805
0.585815
0.585825
0.585825
0.585836
0.585846
0.585857
0.585867
0.585867
0.585877
0.585888
0.585898
0.585909
0.585909
0.585919
0.58593
0.58594
0.585951
0.585951
0.585962
0.585972
0.585983
0.585993
0.585993
0.586004
0.586015
0.586025
0.586036
0.586036
0.586047
0.586057
0.586068
0.586079
0.586079
0.586089
0.5861
0.586111
0.586122
0.586122
0.586132
0.586143
0.586154
0.586165
0.586165
0.586176
0.586187
0.586197
0.586208
0.586208
0.586219
0.58623
0.586241
0.586252
0.586252
0.586263
0.586274
0.586285
0.586296
0.586296
0.586307
0.586318
0.586329
0.58634
0.58634
0.586351
0.586362
0.586373
0.586384
0.586384
0.586395
0.586406
0.586417
0.586429
0.586429
0.58644
0.586451
0.586462
0.586473
0.586473
0.586484
0.586496
0.586507
0.586518
0.586518
0.586529
0.586541
0.586552
0.586563
0.586563
0.586575
0.586586
0.586597
0.586609
0.586609
0.58662
0.586631
0.586643
0.586654
0.586654
0.586666
0.586677
0.586688
0.5867
0.5867
0.586711
0.586723
0.586734
0.586746
0.586746
0.586757
0.586769
0.58678
0.586792
0.586792
0.586804
0.586815
0.586827
0.586839
0.586839
0.58685
0.586862
0.586874
0.586886
0.586886
0.586897
0.586909
0.586921
0.586933
0.586933
0.586945
0.586956
0.586968
0.58698
0.58698
0.586992
0.587004
0.587016
0.587028
0.587028
0.587039
0.587051
0.587063
0.587075
0.587075
0.587087
0.587099
0.587111
0.587123
0.587123
0.587135
0.587147
0.587159
0.587171
0.587171
0.587183
0.587195
0.587208
0.58722
0.58722
0.587232
0.587244
0.587256
0.587268
0.587268
0.58728
0.587293
0.587305
0.587317
0.587317
0.587329
0.587342
0.587354
0.587366
0.587366
0.587379
0.587391
0.587403
0.587416
0.587416
0.587428
0.58744
0.587453
0.587465
0.587465
0.587478
0.58749
0.587502
0.587515
0.587515
0.587527
0.58754
0.587552
0.587565
0.587565
0.587578
0.58759
0.587603
0.587615
0.587615
0.587628
0.58764
0.587653
0.587666
0.587666
0.587678
0.587691
0.587704
0.587717
0.587717
0.587729
0.587742
0.587755
0.587768
0.587768
0.58778
0.587793
0.587806
0.587819
0.587819
0.587832
0.587845
0.587857
0.58787
0.58787
0.587883
0.587896
0.587909
0.587922
0.587922
0.587935
0.587948
0.587961
0.587974
0.587974
0.587987
0.588
0.588013
0.588026
0.588026
0.588039
0.588052
0.588066
0.588079
0.588079
0.588092
0.588105
0.588118
0.588131
0.588131
0.588145
0.588158
0.588171
0.588184
0.588184
0.588198
0.588211
0.588224
0.588238
0.588238
0.588251
0.588264
0.588278
0.588291
0.588291
0.588304
0.588318
0.588331
0.588345
0.588345
0.588358
0.588371
0.588385
0.588398
0.588398
0.588412
0.588425
0.588439
0.588452
0.588452
0.588466
0.58848
0.588493
0.588507
0.588507
0.588521
0.588534
0.588548
0.588562
0.588562
0.588576
0.58859
0.588603
0.588617
0.588617
0.588631
0.588645
0.588659
0.588673
0.588673
0.588686
0.5887
0.588714
0.588728
0.588728
0.588742
0.588756
0.58877
0.588784
0.588784
0.588798
0.588812
0.588826
0.58884
0.58884
0.588854
0.588868
0.588882
0.588896
0.588896
0.588911
0.588925
0.588939
0.588953
0.588953
0.588967
0.588981
0.588996
0.58901
0.58901
0.589024
0.589038
0.589053
0.589067
0.589067
0.589081
0.589096
0.58911
0.589124
0.589124
0.589139
0.589153
0.589168
0.589182
0.589182
0.589196
0.589211
0.589225
0.58924
0.58924
0.589254
0.589269
0.589283
0.589298
0.589298
0.589313
0.589327
0.589342
0.589356
0.589356
0.589371
0.589386
0.5894
0.589415
0.589415
0.58943
0.589445
0.589459
0.589474
0.589474
0.589489
0.589504
0.589519
0.589533
0.589533
0.589548
0.589563
0.589578
0.589593
0.589593
0.589608
0.589623
0.589638
0.589653
0.589653
0.589668
0.589683
0.589698
0.589713
0.589713
0.589728
0.589743
0.589758
0.589773
0.589773
0.589788
0.589803
0.589819
0.589834
0.589834
0.589849
0.589864
0.589879
0.589895
0.589895
0.58991
0.589925
0.58994
0.589956
0.589956
0.589971
0.589986
0.590002
0.590017
0.590017
0.590033
0.590048
0.590063
0.590079
0.590079
0.590094
0.59011
0.590125
0.590141
0.590141
0.590156
0.590172
0.590187
0.590203
0.590203
0.590218
0.590234
0.59025
0.590265
0.590265
0.590281
0.590297
0.590313
0.590328
0.590328
0.590344
0.59036
0.590376
0.590392
0.590392
0.590408
0.590423
0.590439
0.590455
0.590455
0.590471
0.590487
0.590503
0.590519
0.590519
0.590535
0.590551
0.590567
0.590583
0.590583
0.590599
0.590615
0.590631
0.590648
0.590648
0.590664
0.59068
0.590696
0.590712
0.590712
0.590728
0.590745
0.590761
0.590777
0.590777
0.590793
0.59081
0.590826
0.590842
0.590842
0.590859
0.590875
0.590891
0.590908
0.590908
0.590924
0.590941
0.590957
0.590974
0.590974
0.59099
0.591007
0.591023
0.59104
0.59104
0.591056
0.591073
0.591089
0.591106
0.591106
0.591123
0.591139
0.591156
0.591173
0.591173
0.591189
0.591206
0.591223
0.59124
0.59124
0.591256
0.591273
0.59129
0.591307
0.591307
0.591324
0.591341
0.591358
0.591375
0.591375
0.591391
0.591408
0.591425
0.591442
0.591442
0.591459
0.591476
0.591493
0.591511
0.591511
0.591528
0.591545
0.591562
0.591579
0.591579
0.591596
0.591613
0.591631
0.591648
0.591648
0.591665
0.591682
0.5917
0.591717
0.591717
0.591734
0.591751
0.591769
0.591786
0.591786
0.591804
0.591821
0.591838
0.591856
0.591856
0.591873
0.591891
0.591908
0.591926
0.591926
0.591943
0.591961
0.591978
0.591996
0.591996
0.592013
0.592031
0.592049
0.592066
0.592066
0.592084
0.592102
0.592119
0.592137
0.592137
0.592155
0.592173
0.592191
0.592209
0.592209
0.592227
0.592244
0.592262
0.59228
0.59228
0.592298
0.592316
0.592334
0.592352
0.592352
0.592371
0.592389
0.592407
0.592425
0.592425
0.592443
0.592461
0.592479
0.592497
0.592497
0.592516
0.592534
0.592552
0.59257
0.59257
0.592589
0.592607
0.592625
0.592643
0.592643
0.592662
0.59268
0.592699
0.592717
0.592717
0.592735
0.592754
0.592772
0.592791
0.592791
0.592809
0.592828
0.592846
0.592865
0.592865
0.592884
0.592902
0.592921
0.592939
0.592939
0.592958
0.592977
0.592995
0.593014
0.593014
0.593033
0.593052
0.593071
0.593089
0.593089
0.593108
0.593127
0.593146
0.593165
0.593165
0.593184
0.593203
0.593222
0.593241
0.593241
0.59326
0.593279
0.593298
0.593317
0.593317
0.593336
0.593355
0.593374
0.593393
0.593393
0.593412
0.593431
0.593451
0.59347
0.59347
0.593489
0.593508
0.593528
0.593547
0.593547
0.593566
0.593586
0.593605
0.593624
0.593624
0.593644
0.593663
0.593683
0.593702
0.593702
0.593722
0.593741
0.593761
0.59378
0.59378
0.5938
0.593819
0.593839
0.593858
0.593858
0.593878
0.593898
0.593917
0.593937
0.593937
0.593957
0.593976
0.593996
0.594016
0.594016
0.594036
0.594055
0.594075
0.594095
0.594095
0.594115
0.594135
0.594155
0.594175
0.594175
0.594195
0.594215
0.594236
0.594256
0.594256
0.594276
0.594296
0.594316
0.594336
0.594336
0.594357
0.594377
0.594397
0.594417
0.594417
0.594438
0.594458
0.594478
0.594499
0.594499
0.594519
0.594539
0.59456
0.59458
0.59458
0.594601
0.594621
0.594642
0.594662
0.594662
0.594683
0.594703
0.594724
0.594745
0.594745
0.594765
0.594786
0.594806
0.594827
0.594827
0.594848
0.594869
0.594889
0.59491
0.59491
0.594931
0.594952
0.594973
0.594993
0.594993
0.595014
0.595035
0.595056
0.595077
0.595077
0.595098
0.595119
0.59514
0.595161
0.595161
0.595182
0.595203
0.595224
0.595246
0.595246
0.595267
0.595288
0.595309
0.59533
0.59533
0.595352
0.595373
0.595394
0.595415
0.595415
0.595437
0.595458
0.59548
0.595501
0.595501
0.595522
0.595544
0.595565
0.595587
0.595587
0.595608
0.59563
0.595651
0.595673
0.595673
0.595695
0.595716
0.595738
0.595759
0.595759
0.595781
0.595803
0.595825
0.595846
0.595846
0.595868
0.59589
0.595912
0.595933
0.595933
0.595955
0.595977
0.595999
0.596021
0.596021
0.596043
0.596065
0.596087
0.596109
0.596109
0.596131
0.596153
0.596175
0.596197
0.596197
0.596219
0.596241
0.596264
0.596286
0.596286
0.596308
0.596331
0.596353
0.596376
0.596376
0.596398
0.59642
0.596443
0.596465
0.596465
0.596488
0.59651
0.596533
0.596555
0.596555
0.596578
0.5966
0.596623
0.596646
0.596646
0.596668
0.596691
0.596714
0.596736
0.596736
0.596759
0.596782
0.596805
0.596828
0.596828
0.59685
0.596873
0.596896
0.596919
0.596919
0.596942
0.596965
0.596988
0.597011
0.597011
0.597034
0.597057
0.59708
0.597103
0.597103
0.597126
0.597149
0.597173
0.597196
0.597196
0.597219
0.597242
0.597265
0.597289
0.597289
0.597312
0.597335
0.597359
0.597382
0.597382
0.597406
0.597429
0.597452
0.597476
0.597476
0.597499
0.597523
0.597546
0.59757
0.59757
0.597594
0.597617
0.597641
0.597665
0.597665
0.597688
0.597712
0.597736
0.597759
0.597759
0.597783
0.597807
0.597831
0.597855
0.597855
0.597879
0.597903
0.597926
0.59795
0.59795
0.597974
0.597998
0.598022
0.598046
0.598046
0.59807
0.598094
0.598119
0.598143
0.598143
0.598167
0.598191
0.598215
0.598239
0.598239
0.598264
0.598288
0.598312
0.598336
0.598336
0.598361
0.598385
0.59841
0.598434
0.598434
0.598459
0.598484
0.598508
0.598533
0.598533
0.598557
0.598582
0.598607
0.598632
0.598632
0.598656
0.598681
0.598706
0.598731
0.598731
0.598756
0.59878
0.598805
0.59883
0.59883
0.598855
0.59888
0.598905
0.59893
0.59893
0.598955
0.59898
0.599005
0.59903
0.59903
0.599055
0.599081
0.599106
0.599131
0.599131
0.599156
0.599181
0.599207
0.599232
0.599232
0.599257
0.599283
0.599308
0.599333
0.599333
0.599359
0.599384
0.59941
0.599435
0.599435
0.599461
0.599486
0.599512
0.599537
0.599537
0.599563
0.599589
0.599614
0.59964
0.59964
0.599666
0.599692
0.599717
0.599743
0.599743
0.599769
0.599795
0.599821
0.599847
0.599847
0.599873
0.599899
0.599925
0.599951
0.599951
0.599977
0.600003
0.600029
0.600055
0.600055
0.600081
0.600107
0.600133
0.60016
0.60016
0.600186
0.600212
0.600238
0.600265
0.600265
0.600291
0.600317
0.600344
0.60037
0.60037
0.600396
0.600423
0.600449
0.600476
0.600476
0.600502
0.600529
0.600555
0.600582
0.600582
0.600609
0.600635
0.600662
0.600689
0.600689
0.600716
0.600743
0.60077
0.600797
0.600797
0.600824
0.600851
0.600878
0.600905
0.600905
0.600932
0.600959
0.600986
0.601013
0.601013
0.60104
0.601067
0.601095
0.601122
0.601122
0.601149
0.601176
0.601204
0.601231
0.601231
0.601258
0.601286
0.601313
0.601341
0.601341
0.601368
0.601396
0.601423
0.601451
0.601451
0.601478
0.601506
0.601534
0.601561
0.601561
0.601589
0.601617
0.601644
0.601672
0.601672
0.6017
0.601728
0.601755
0.601783
0.601783
0.601811
0.601839
0.601867
0.601895
0.601895
0.601923
0.601951
0.601979
0.602007
0.602007
0.602035
0.602064
0.602092
0.60212
0.60212
0.602148
0.602176
0.602205
0.602233
0.602233
0.602261
0.60229
0.602318
0.602346
0.602346
0.602375
0.602403
0.602432
0.60246
0.60246
0.602489
0.602517
0.602546
0.602575
0.602575
0.602603
0.602632
0.602661
0.602689
0.602689
0.602718
0.602747
0.602775
0.602804
0.602804
0.602833
0.602862
0.602891
0.60292
0.60292
0.602949
0.602978
0.603007
0.603036
0.603036
0.603065
0.603094
0.603124
0.603153
0.603153
0.603182
0.603212
0.603241
0.60327
0.60327
0.6033
0.603329
0.603359
0.603388
0.603388
0.603418
0.603447
0.603477
0.603507
0.603507
0.603536
0.603566
0.603596
0.603625
0.603625
0.603655
0.603685
0.603715
0.603744
0.603744
0.603774
0.603804
0.603834
0.603864
0.603864
0.603894
0.603924
0.603954
0.603984
0.603984
0.604014
0.604044
0.604074
0.604104
0.604104
0.604135
0.604165
0.604195
0.604225
0.604225
0.604256
0.604286
0.604316
0.604347
0.604347
0.604377
0.604407
0.604438
0.604468
0.604468
0.604499
0.60453
0.60456
0.604591
0.604591
0.604621
0.604652
0.604683
0.604713
0.604713
0.604744
0.604775
0.604806
0.604837
0.604837
0.604868
0.604898
0.604929
0.60496
0.60496
0.604991
0.605022
0.605053
0.605084
0.605084
0.605115
0.605146
0.605178
0.605209
0.605209
0.60524
0.605271
0.605302
0.605334
0.605334
0.605365
0.605396
0.605428
0.605459
0.605459
0.60549
0.605522
0.605554
0.605585
0.605585
0.605617
0.605649
0.60568
0.605712
0.605712
0.605744
0.605776
0.605808
0.60584
0.60584
0.605871
0.605903
0.605935
0.605967
0.605967
0.605999
0.606031
0.606064
0.606096
0.606096
0.606128
0.60616
0.606192
0.606224
0.606224
0.606257
0.606289
0.606321
0.606353
0.606353
0.606386
0.606418
0.606451
0.606483
0.606483
0.606516
0.606548
0.606581
0.606613
0.606613
0.606646
0.606678
0.606711
0.606744
0.606744
0.606776
0.606809
0.606842
0.606875
0.606875
0.606908
0.60694
0.606973
0.607006
0.607006
0.607039
0.607072
0.607105
0.607138
0.607138
0.607171
0.607204
0.607238
0.607271
0.607271
0.607304
0.607337
0.60737
0.607404
0.607404
0.607437
0.60747
0.607504
0.607537
0.607537
0.60757
0.607604
0.607637
0.607671
0.607671
0.607704
0.607738
0.607772
0.607805
0.607805
0.607839
0.607872
0.607906
0.60794
0.60794
0.607974
0.608007
0.608041
0.608075
0.608075
0.608109
0.608143
0.608177
0.608211
0.608211
0.608245
0.60828
0.608314
0.608348
0.608348
0.608382
0.608417
0.608451
0.608486
0.608486
0.60852
0.608554
0.608589
0.608623
0.608623
0.608658
0.608692
0.608727
0.608762
0.608762
0.608796
0.608831
0.608866
0.6089
0.6089
0.608935
0.60897
0.609005
0.609039
0.609039
0.609074
0.609109
0.609144
0.609179
0.609179
0.609214
0.609249
0.609284
0.609319
0.609319
0.609354
0.60939
0.609425
0.60946
0.60946
0.609495
0.60953
0.609566
0.609601
0.609601
0.609636
0.609672
0.609707
0.609743
0.609743
0.609778
0.609814
0.609849
0.609885
0.609885
0.609921
0.609956
0.609992
0.610028
0.610028
0.610063
0.610099
0.610135
0.610171
0.610171
0.610206
0.610242
0.610278
0.610314
0.610314
0.61035
0.610386
0.610422
0.610458
0.610458
0.610494
0.61053
0.610566
0.610603
0.610603
0.610639
0.610675
0.610711
0.610748
0.610748
0.610784
0.610821
0.610857
0.610894
0.610894
0.61093
0.610967
0.611004
0.61104
0.61104
0.611077
0.611114
0.611151
0.611188
0.611188
0.611224
0.611261
0.611298
0.611335
0.611335
0.611372
0.611409
0.611446
0.611483
0.611483
0.61152
0.611558
0.611595
0.611632
0.611632
0.611669
0.611706
0.611744
0.611781
0.611781
0.611818
0.611856
0.611893
0.611931
0.611931
0.611968
0.612006
0.612043
0.612081
0.612081
0.612118
0.612156
0.612194
0.612231
0.612231
0.612269
0.612307
0.612345
0.612383
0.612383
0.61242
0.612458
0.612496
0.612534
0.612534
0.612572
0.61261
0.612648
0.612686
0.612686
0.612724
0.612763
0.612801
0.612839
0.612839
0.612877
0.612915
0.612954
0.612992
0.612992
0.61303
0.613069
0.613107
0.613146
0.613146
0.613184
0.613223
0.613261
0.6133
0.6133
0.613338
0.613377
0.613416
0.613454
0.613454
0.613493
0.613532
0.613571
0.61361
0.61361
0.613649
0.613688
0.613727
0.613766
0.613766
0.613805
0.613844
0.613883
0.613923
0.613923
0.613962
0.614001
0.614041
0.61408
0.61408
0.61412
0.614159
0.614198
0.614238
0.614238
0.614278
0.614317
0.614357
0.614396
0.614396
0.614436
0.614476
0.614515
0.614555
0.614555
0.614595
0.614635
0.614675
0.614715
0.614715
0.614754
0.614794
0.614834
0.614874
0.614874
0.614914
0.614954
0.614995
0.615035
0.615035
0.615075
0.615115
0.615155
0.615196
0.615196
0.615236
0.615276
0.615317
0.615357
0.615357
0.615397
0.615438
0.615478
0.615519
0.615519
0.615559
0.6156
0.615641
0.615681
0.615681
0.615722
0.615763
0.615803
0.615844
0.615844
0.615885
0.615926
0.615967
0.616008
0.616008
0.616049
0.616089
0.61613
0.616171
0.616171
0.616213
0.616254
0.616295
0.616336
0.616336
0.616377
0.616418
0.61646
0.616501
0.616501
0.616543
0.616584
0.616626
0.616667
0.616667
0.616709
0.61675
0.616792
0.616834
0.616834
0.616876
0.616917
0.616959
0.617001
0.617001
0.617043
0.617085
0.617127
0.617169
0.617169
0.617211
0.617253
0.617295
0.617337
0.617337
0.617379
0.617422
0.617464
0.617506
0.617506
0.617548
0.617591
0.617633
0.617675
0.617675
0.617718
0.61776
0.617803
0.617845
0.617845
0.617888
0.61793
0.617973
0.618015
0.618015
0.618058
0.618101
0.618143
0.618186
0.618186
0.618229
0.618272
0.618315
0.618357
0.618357
0.6184
0.618443
0.618486
0.618529
0.618529
0.618572
0.618615
0.618659
0.618702
0.618702
0.618745
0.618788
0.618831
0.618874
0.618874
0.618918
0.618961
0.619004
0.619048
0.619048
0.619091
0.619135
0.619178
0.619222
0.619222
0.619265
0.619309
0.619353
0.619396
0.619396
0.61944
0.619484
0.619528
0.619572
0.619572
0.619616
0.61966
0.619704
0.619748
0.619748
0.619792
0.619836
0.61988
0.619925
0.619925
0.619969
0.620013
0.620058
0.620102
0.620102
0.620146
0.620191
0.620235
0.62028
0.62028
0.620324
0.620369
0.620413
0.620458
0.620458
0.620503
0.620547
0.620592
0.620637
0.620637
0.620682
0.620726
0.620771
0.620816
0.620816
0.620861
0.620906
0.620951
0.620996
0.620996
0.621041
0.621086
0.621131
0.621176
0.621176
0.621221
0.621267
0.621312
0.621357
0.621357
0.621402
0.621448
0.621493
0.621538
0.621538
0.621584
0.621629
0.621675
0.62172
0.62172
0.621766
0.621811
0.621857
0.621903
0.621903
0.621948
0.621994
0.62204
0.622085
0.622085
0.622131
0.622177
0.622223
0.622269
0.622269
0.622315
0.622361
0.622407
0.622453
0.622453
0.622499
0.622545
0.622592
0.622638
0.622638
0.622684
0.622731
0.622777
0.622824
0.622824
0.62287
0.622917
0.622963
0.62301
0.62301
0.623057
0.623103
0.62315
0.623197
0.623197
0.623244
0.62329
0.623337
0.623384
0.623384
0.623431
0.623478
0.623525
0.623572
0.623572
0.623619
0.623666
0.623713
0.62376
0.62376
0.623807
0.623855
0.623902
0.623949
0.623949
0.623996
0.624044
0.624091
0.624138
0.624138
0.624186
0.624233
0.624281
0.624328
0.624328
0.624376
0.624423
0.624471
0.624519
0.624519
0.624566
0.624614
0.624662
0.62471
0.62471
0.624757
0.624805
0.624853
0.624901
0.624901
0.624949
0.624997
0.625045
0.625093
0.625093
0.625141
0.625189
0.625237
0.625285
0.625285
0.625333
0.625382
0.62543
0.625478
0.625478
0.625527
0.625575
0.625623
0.625672
0.625672
0.625721
0.625769
0.625818
0.625867
0.625867
0.625915
0.625964
0.626013
0.626062
0.626062
0.626111
0.62616
0.626209
0.626258
0.626258
0.626307
0.626356
0.626405
0.626454
0.626454
0.626503
0.626552
0.626602
0.626651
0.626651
0.6267
0.626749
0.626799
0.626848
0.626848
0.626898
0.626947
0.626996
0.627046
0.627046
0.627095
0.627145
0.627195
0.627244
0.627244
0.627294
0.627344
0.627393
0.627443
0.627443
0.627493
0.627543
0.627592
0.627642
0.627642
0.627692
0.627742
0.627792
0.627842
0.627842
0.627892
0.627942
0.627992
0.628042
0.628042
0.628092
0.628143
0.628193
0.628243
0.628243
0.628293
0.628344
0.628394
0.628444
0.628444
0.628495
0.628545
0.628596
0.628646
0.628646
0.628697
0.628747
0.628798
0.628849
0.628849
0.6289
0.628951
0.629001
0.629052
0.629052
0.629103
0.629154
0.629205
0.629257