<?xml version="1.0"?>
<VTKFile type="UnstructuredGrid" version="0.1" byte_order="LittleEndian">
<UnstructuredGrid>
<Piece NumberOfPoints="5000" NumberOfCells="4000">
<PointData Scalars="Reaction 0">
<DataArray type="Float32" Name="Reaction 0" format="ascii">
0.826242
0.826242
0.826242
0.826242
0.826242
0.826242
0.826242
0.826242
0.826242
0.826242
0.826242
0.826243
0.826243
0.826243
0.826243
0.826243
0.826243
0.826243
0.826244
0.826244
0.826244
0.826244
0.826244
0.826245
0.826245
0.826245
0.826245
0.826246
0.826246
0.826246
0.826246
0.826247
0.826247
0.826248
0.826248
0.826248
0.826248
0.826249
0.826249
0.82625
0.82625
0.82625
0.826251
0.826251
0.826252
0.826252
0.826253
0.826253
0.826254
0.826254
0.826254
0.826255
0.826256
0.826256
0.826257
0.826257
0.826258
0.826258
0.826259
0.82626
0.82626
0.826261
0.826261
0.826262
0.826263
0.826263
0.826264
0.826265
0.826265
0.826266
0.826266
0.826267
0.826268
0.826269
0.82627
0.82627
0.826271
0.826272
0.826273
0.826274
0.826274
0.826275
0.826276
0.826277
0.826278
0.826278
0.826279
0.82628
0.826281
0.826282
0.826282
0.826283
0.826284
0.826285
0.826287
0.826287
0.826288
0.826289
0.82629
0.826291
0.826291
0.826293
0.826294
0.826295
0.826297
0.826297
0.826298
0.826299
0.826301
0.826302
0.826302
0.826303
0.826305
0.826306
0.826307
0.826307
0.826309
0.82631
0.826312
0.826313
0.826313
0.826315
0.826316
0.826318
0.826319
0.826319
0.826321
0.826322
0.826324
0.826326
0.826326
0.826327
0.826329
0.826331
0.826332
0.826332
0.826334
0.826336
0.826337
0.826339
0.826339
0.826341
0.826342
0.826344
0.826346
0.826346
0.826348
0.82635
0.826352
0.826353
0.826353
0.826355
0.826357
0.826359
0.826361
0.826361
0.826363
0.826365
0.826367
0.826369
0.826369
0.826371
0.826373
0.826375
0.826377
0.826377
0.826379
0.826381
0.826383
0.826385
0.826385
0.826387
0.826389
0.826391
0.826394
0.826394
0.826396
0.826398
0.8264
0.826402
0.826402
0.826405
0.826407
0.826409
0.826411
0.826411
0.826414
0.826416
0.826418
0.826421
0.826421
0.826423
0.826425
0.826428
0.82643
0.82643
0.826433
0.826435
0.826437
0.82644
0.82644
0.826442
0.826445
0.826447
0.82645
0.82645
0.826452
0.826455
0.826458
0.82646
0.82646
0.826463
0.826465
0.826468
0.826471
0.826471
0.826473
0.826476
0.826479
0.826481
0.826481
0.826484
0.826487
0.82649
0.826492
0.826492
0.826495
0.826498
0.826501
0.826504
0.826504
0.826506
0.826509
0.826512
0.826515
0.826515
0.826518
0.826521
0.826524
0.826527
0.826527
0.82653
0.826533
0.826536
0.826539
0.826539
0.826542
0.826545
0.826548
0.826551
0.826551
0.826554
0.826557
0.82656
0.826564
0.826564
0.826567
0.82657
0.826573
0.826576
0.826576
0.826579
0.826583
0.826586
0.826589
0.826589
0.826592
0.826596
0.826599
0.826602
0.826602
0.826606
0.826609
0.826612
0.826616
0.826616
0.826619
0.826623
0.826626
0.826629
0.826629
0.826633
0.826636
0.82664
0.826643
0.826643
0.826647
0.82665
0.826654
0.826658
0.826658
0.826661
0.826665
0.826668
0.826672
0.826672
0.826676
0.826679
0.826683
0.826687
0.826687
0.82669
0.826694
0.826698
0.826702
0.826702
0.826705
0.826709
0.826713
0.826717
0.826717
0.826721
0.826724
0.826728
0.826732
0.826732
0.826736
0.82674
0.826744
0.826748
0.826748
0.826752
0.826756
0.82676
0.826764
0.826764
0.826768
0.826772
0.826776
0.82678
0.82678
0.826784
0.826788
0.826792
0.826796
0.826796
0.8268
0.826804
0.826808
0.826813
0.826813
0.826817
0.826821
0.826825
0.826829
0.826829
0.826834
0.826838
0.826842
0.826846
0.826846
0.826851
0.826855
0.826859
0.826864
0.826864
0.826868
0.826872
0.826877
0.826881
0.826881
0.826885
0.82689
0.826894
0.826899
0.826899
0.826903
0.826908
0.826912
0.826916
0.826916
0.826921
0.826926
0.82693
0.826935
0.826935
0.826939
0.826944
0.826949
0.826954
0.826954
0.826958
0.826963
0.826968
0.826973
0.826973
0.826977
0.826982
0.826987
0.826992
0.826992
0.826997
0.827001
0.827006
0.827011
0.827011
0.827016
0.827021
0.827026
0.827031
0.827031
0.827036
0.827041
0.827046
0.827051
0.827051
0.827056
0.827061
0.827066
0.827071
0.827071
0.827076
0.827081
0.827086
0.827091
0.827091
0.827096
0.827101
0.827106
0.827111
0.827111
0.827116
0.827122
0.827127
0.827132
0.827132
0.827137
0.827142
0.827148
0.827153
0.827153
0.827158
0.827164
0.827169
0.827174
0.827174
0.827179
0.827185
0.82719
0.827196
0.827196
0.827201
0.827206
0.827212
0.827217
0.827217
0.827223
0.827228
0.827234
0.827239
0.827239
0.827245
0.82725
0.827256
0.827261
0.827261
0.827267
0.827272
0.827278
0.827284
0.827284
0.827289
0.827295
0.827301
0.827306
0.827306
0.827312
0.827318
0.827323
0.827329
0.827329
0.827335
0.827341
0.827346
0.827352
0.827352
0.827358
0.827364
0.82737
0.827376
0.827376
0.827381
0.827387
0.827393
0.827399
0.827399
0.827405
0.827411
0.827417
0.827423
0.827423
0.827429
0.827435
0.827441
0.827447
0.827447
0.827453
0.827459
0.827465
0.827471
0.827471
0.827477
0.827484
0.82749
0.827496
0.827496
0.827502
0.827508
0.827514
0.827521
0.827521
0.827527
0.827533
0.827539
0.827546
0.827546
0.827552
0.827558
0.827564
0.827571
0.827571
0.827577
0.827584
0.82759
0.827596
0.827596
0.827603
0.827609
0.827616
0.827622
0.827622
0.827628
0.827635
0.827641
0.827648
0.827648
0.827654
0.827661
0.827668
0.827674
0.827674
0.827681
0.827687
0.827694
0.827701
0.827701
0.827707
0.827714
0.82772
0.827727
0.827727
0.827734
0.827741
0.827747
0.827754
0.827754
0.827761
0.827768
0.827774
0.827781
0.827781
0.827788
0.827795
0.827802
0.827809
0.827809
0.827815
0.827822
0.827829
0.827836
0.827836
0.827843
0.82785
0.827857
0.827864
0.827864
0.827871
0.827878
0.827885
0.827892
0.827892
0.827899
0.827906
0.827913
0.82792
0.82792
0.827927
0.827934
0.827942
0.827949
0.827949
0.827956
0.827963
0.82797
0.827977
0.827977
0.827985
0.827992
0.827999
0.828006
0.828006
0.828014
0.828021
0.828028
0.828036
0.828036
0.828043
0.82805
0.828058
0.828065
0.828065
0.828073
0.82808
0.828087
0.828095
0.828095
0.828102
0.82811
0.828117
0.828125
0.828125
0.828132
0.82814
0.828147
0.828155
0.828155
0.828162
0.82817
0.828178
0.828185
0.828185
0.828193
0.8282
0.828208
0.828216
0.828216
0.828223
0.828231
0.828239
0.828247
0.828247
0.828254
0.828262
0.82827
0.828278
0.828278
0.828285
0.828293
0.828301
0.828309
0.828309
0.828317
0.828325
0.828333
0.828341
0.828341
0.828348
0.828356
0.828364
0.828372
0.828372
0.82838
0.828388
0.828396
0.828404
0.828404
0.828412
0.82842
0.828428
0.828436
0.828436
0.828445
0.828453
0.828461
0.828469
0.828469
0.828477
0.828485
0.828493
0.828502
0.828502
0.82851
0.828518
0.828526
0.828534
0.828534
0.828543
0.828551
0.828559
0.828568
0.828568
0.828576
0.828584
0.828593
0.828601
0.828601
0.828609
0.828618
0.828626
0.828634
0.828634
0.828643
0.828651
0.82866
0.828668
0.828668
0.828677
0.828685
0.828694
0.828702
0.828702
0.828711
0.828719
0.828728
0.828737
0.828737
0.828745
0.828754
0.828762
0.828771
0.828771
0.82878
0.828788
0.828797
0.828806
0.828806
0.828814
0.828823
0.828832
0.828841
0.828841
0.828849
0.828858
0.828867
0.828876
0.828876
0.828885
0.828893
0.828902
0.828911
0.828911
0.82892
0.828929
0.828938
0.828947
0.828947
0.828956
0.828965
0.828974
0.828983
0.828983
0.828992
0.829001
0.82901
0.829019
0.829019
0.829028
0.829037
0.829046
0.829055
0.829055
0.829064
0.829073
0.829082
0.829091
0.829091
0.8291
0.82911
0.829119
0.829128
0.829128
0.829137
0.829146
0.829155
0.829165
0.829165
0.829174
0.829183
0.829192
0.829202
0.829202
0.829211
0.82922
0.829229
0.829239
0.829239
0.829248
0.829257
0.829267
0.829276
0.829276
0.829285
0.829295
0.829304
0.829313
0.829313
0.829323
0.829332
0.829342
0.829352
0.829352
0.829361
0.829371
0.82938
0.82939
0.82939
0.8294
0.829409
0.829419
0.829429
0.829429
0.829439
0.829448
0.829458
0.829468
0.829468
0.829478
0.829487
0.829497
0.829507
0.829507
0.829517
0.829527
0.829537
0.829546
0.829546
0.829556
0.829566
0.829576
0.829586
0.829586
0.829596
0.829606
0.829616
0.829625
0.829625
0.829635
0.829645
0.829655
0.829665
0.829665
0.829675
0.829685
0.829695
0.829705
0.829705
0.829715
0.829725
0.829736
0.829746
0.829746
0.829756
0.829766
0.829776
0.829786
0.829786
0.829796
0.829806
0.829817
0.829827
0.829827
0.829837
0.829847
0.829857
0.829868
0.829868
0.829878
0.829888
0.829898
0.829909
0.829909
0.829919
0.829929
0.82994
0.82995
0.82995
0.82996
0.829971
0.829981
0.829992
0.829992
0.830002
0.830012
0.830023
0.830033
0.830033
0.830044
0.830054
0.830065
0.830075
0.830075
0.830086
0.830096
0.830107
0.830118
0.830118
0.830128
0.830139
0.830149
0.83016
0.83016
0.830171
0.830181
0.830192
0.830203
0.830203
0.830213
0.830224
0.830235
0.830245
0.830245
0.830256
0.830267
0.830278
0.830288
0.830288
0.830299
0.83031
0.830321
0.830332
0.830332
0.830343
0.830353
0.830364
0.830375
0.830375
0.830386
0.830397
0.830408
0.830419
0.830419
0.83043
0.830441
0.830452
0.830463
0.830463
0.830474
0.830485
0.830496
0.830507
0.830507
0.830518
0.830529
0.83054
0.830551
0.830551
0.830562
0.830573
0.830585
0.830596
0.830596
0.830607
0.830618
0.830629
0.83064
0.83064
0.830652
0.830663
0.830674
0.830685
0.830685
0.830697
0.830708
0.830719
0.830731
0.830731
0.830742
0.830753
0.830765
0.830776
0.830776
0.830787
0.830799
0.83081
0.830822
0.830822
0.830833
0.830844
0.830856
0.830867
0.830867
0.830879
0.83089
0.830902
0.830913
0.830913
0.830925
0.830936
0.830948
0.83096
0.83096
0.830971
0.830983
0.830994
0.831006
0.831006
0.831018
0.831029
0.831041
0.831053
0.831053
0.831064
0.831076
0.831088
0.831099
0.831099
0.831111
0.831123
0.831135
0.831146
0.831146
0.831158
0.83117
0.831182
0.831194
0.831194
0.831205
0.831217
0.831229
0.831241
0.831241
0.831253
0.831265
0.831277
0.831289
0.831289
0.831301
0.831313
0.831325
0.831337
0.831337
0.831348
0.83136
0.831372
0.831384
0.831384
0.831397
0.831409
0.831421
0.831433
0.831433
0.831445
0.831457
0.831469
0.831481
0.831481
0.831493
0.831505
0.831517
0.831529
0.831529
0.831541
0.831554
0.831566
0.831578
0.831578
0.83159
0.831602
0.831614
0.831626
0.831626
0.831639
0.831651
0.831663
0.831675
0.831675
0.831688
0.8317
0.831713
0.831725
0.831725
0.831737
0.83175
0.831762
0.831775
0.831775
0.831788
0.8318
0.831813
0.831825
0.831825
0.831838
0.83185
0.831863
0.831876
0.831876
0.831888
0.831901
0.831914
0.831926
0.831926
0.831939
0.831952
0.831964
0.831977
0.831977
0.83199
0.832002
0.832015
0.832028
0.832028
0.83204
0.832053
0.832066
0.832079
0.832079
0.832091
0.832104
0.832117
0.83213
0.83213
0.832143
0.832155
0.832168
0.832181
0.832181
0.832194
0.832207
0.83222
0.832233
0.832233
0.832246
0.832258
0.832271
0.832284
0.832284
0.832297
0.83231
0.832323
0.832336
0.832336
0.832349
0.832362
0.832375
0.832388
0.832388
0.832401
0.832414
0.832428
0.832441
0.832441
0.832454
0.832467
0.83248
0.832493
0.832493
0.832506
0.832519
0.832533
0.832546
0.832546
0.832559
0.832572
0.832585
0.832599
0.832599
0.832612
0.832625
0.832638
0.832652
0.832652
0.832665
0.832678
0.832692
0.832705
0.832705
0.832718
0.832732
0.832745
0.832758
0.832758
0.832772
0.832785
0.832799
0.832812
0.832812
0.832825
0.832839
0.832852
0.832866
0.832866
0.832879
0.832893
0.832906
0.83292
0.83292
0.832933
0.832947
0.832961
0.832974
0.832974
0.832988
0.833001
0.833015
0.833029
0.833029
0.833042
0.833056
0.833069
0.833083
0.833083
0.833097
0.833111
0.833124
0.833138
0.833138
0.833152
0.833165
0.833179
0.833193
0.833193
0.833207
0.83322
0.833234
0.833248
0.833248
0.833262
0.833276
0.83329
0.833303
0.833303
0.833317
0.833331
0.833345
0.833359
0.833359
0.833373
0.833387
0.833401
0.833415
0.833415
0.833429
0.833443
0.833457
0.833471
0.833471
0.833485
0.833499
0.833513
0.833527
0.833527
0.833541
0.833555
0.833569
0.833583
0.833583
0.833597
0.833611
0.833625
0.833639
0.833639
0.833654
0.833668
0.833682
0.833696
0.833696
0.83371
0.833724
0.833739
0.833753
0.833753
0.833767
0.833781
0.833795
0.833809
0.833809
0.833824
0.833838
0.833852
0.833866
0.833866
0.833881
0.833895
0.833909
0.833923
0.833923
0.833938
0.833952
0.833966
0.833981
0.833981
0.833995
0.834009
0.834024
0.834038
0.834038
0.834053
0.834067
0.834082
0.834097
0.834097
0.834111
0.834126
0.834141
0.834155
0.834155
0.83417
0.834185
0.834199
0.834214
0.834214
0.834229
0.834243
0.834258
0.834273
0.834273
0.834288
0.834302
0.834317
0.834332
0.834332
0.834347
0.834361
0.834376
0.834391
0.834391
0.834406
0.83442
0.834435
0.83445
0.83445
0.834465
0.83448
0.834495
0.834509
0.834509
0.834524
0.834539
0.834554
0.834569
0.834569
0.834584
0.834599
0.834614
0.834629
0.834629
0.834644
0.834658
0.834673
0.834688
0.834688
0.834703
0.834718
0.834733
0.834748
0.834748
0.834763
0.834778
0.834794
0.834809
0.834809
0.834824
0.834839
0.834854
0.834869
0.834869
0.834884
0.834899
0.834914
0.834929
0.834929
0.834945
0.83496
0.834975
0.83499
0.83499
0.835005
0.835021
0.835036
0.835051
0.835051
0.835066
0.835082
0.835097
0.835112
0.835112
0.835127
0.835143
0.835158
0.835173
0.835173
0.835189
0.835204
0.835219
0.835235
0.835235
0.83525
0.835266
0.835281
0.835296
0.835296
0.835312
0.835327
0.835343
0.835358
0.835358
0.835374
0.835389
0.835405
0.83542
0.83542
0.835436
0.835451
0.835467
0.835482
0.835482
0.835498
0.835513
0.835529
0.835545
0.835545
0.83556
0.835576
0.835591
0.835607
0.835607
0.835623
0.835638
0.835654
0.83567
0.83567
0.835685
0.835701
0.835717
0.835732
0.835732
0.835748
0.835764
0.83578
0.835795
0.835795
0.835811
0.835827
0.835843
0.835858
0.835858
0.835874
0.83589
0.835906
0.835922
0.835922
0.835937
0.835953
0.835969
0.835985
0.835985
0.836001
0.836017
0.836033
0.836048
0.836048
0.836064
0.83608
0.836096
0.836112
0.836112
0.836128
0.836144
0.83616
0.836175
0.836175
0.836191
0.836207
0.836223
0.836239
0.836239
0.836255
0.836271
0.836287
0.836303
0.836303
0.83632
0.836336
0.836352
0.836368
0.836368
0.836384
0.836401
0.836417
0.836433
0.836433
0.83645
0.836466
0.836482
0.836499
0.836499
0.836515
0.836531
0.836548
0.836564
0.836564
0.83658
0.836597
0.836613
0.836629
0.836629
0.836646
0.836662
0.836679
0.836695
0.836695
0.836711
0.836728
0.836744
0.836761
0.836761
0.836777
0.836794
0.83681
0.836826
0.836826
0.836843
0.836859
0.836876
0.836892
0.836892
0.836909
0.836925
0.836942
0.836958
0.836958
0.836975
0.836991
0.837008
0.837025
0.837025
0.837041
0.837058
0.837074
0.837091
0.837091
0.837108
0.837124
0.837141
0.837157
0.837157
0.837174
0.837191
0.837207
0.837224
0.837224
0.837241
0.837258
0.837274
0.837291
0.837291
0.837308
0.837325
0.837341
0.837358
0.837358
0.837375
0.837392
0.837408
0.837425
0.837425
0.837442
0.837459
0.837476
0.837493
0.837493
0.837509
0.837526
0.837543
0.83756
0.83756
0.837577
0.837594
0.837611
0.837628
0.837628
0.837645
0.837662
0.837679
0.837695
0.837695
0.837712
0.837729
0.837746
0.837763
0.837763
0.83778
0.837797
0.837815
0.837832
0.837832
0.837849
0.837866
0.837883
0.8379
0.8379
0.837917
0.837934
0.837951
0.837968
0.837968
0.837985
0.838002
0.83802
0.838037
0.838037
0.838054
0.838071
0.838088
0.838105
0.838105
0.838123
0.83814
0.838157
0.838174
0.838174
0.838191
0.838208
0.838226
0.838243
0.838243
0.83826
0.838277
0.838295
0.838312
0.838312
0.838329
0.838346
0.838363
0.838381
0.838381
0.838398
0.838415
0.838433
0.83845
0.83845
0.838467
0.838485
0.838502
0.838519
0.838519
0.838537
0.838554
0.838572
0.838589
0.838589
0.838607
0.838624
0.838642
0.83866
0.83866
0.838677
0.838695
0.838713
0.83873
0.83873
0.838748
0.838766
0.838783
0.838801
0.838801
0.838819
0.838836
0.838854
0.838872
0.838872
0.838889
0.838907
0.838925
0.838943
0.838943
0.83896
0.838978
0.838996
0.839013
0.839013
0.839031
0.839049
0.839067
0.839084
0.839084
0.839102
0.83912
0.839138
0.839156
0.839156
0.839173
0.839191
0.839209
0.839227
0.839227
0.839245
0.839263
0.83928
0.839298
0.839298
0.839316
0.839334
0.839352
0.83937
0.83937
0.839388
0.839406
0.839424
0.839441
0.839441
0.839459
0.839477
0.839495
0.839513
0.839513
0.839531
0.839549
0.839567
0.839585
0.839585
0.839603
0.839621
0.839639
0.839657
0.839657
0.839675
0.839693
0.839712
0.83973
0.83973
0.839748
0.839766
0.839784
0.839802
0.839802
0.83982
0.839838
0.839856
0.839875
0.839875
0.839893
0.839911
0.839929
0.839947
0.839947
0.839965
0.839984
0.840002
0.84002
0.84002
0.840038
0.840057
0.840075
0.840093
0.840093
0.840111
0.84013
0.840148
0.840166
0.840166
0.840184
0.840203
0.840221
0.840239
0.840239
0.840258
0.840276
0.840294
0.840312
0.840312
0.840331
0.840349
0.840367
0.840386
0.840386
0.840404
0.840422
0.840441
0.840459
0.840459
0.840477
0.840496
0.840514
0.840533
0.840533
0.840551
0.840569
0.840588
0.840606
0.840606
0.840625
0.840643
0.840661
0.84068
0.84068
0.840698
0.840717
0.840736
0.840754
0.840754
0.840773
0.840792
0.84081
0.840829
0.840829
0.840848
0.840866
0.840885
0.840904
0.840904
0.840923
0.840941
0.84096
0.840979
0.840979
0.840998
0.841017
0.841035
0.841054
0.841054
0.841073
0.841092
0.841111
0.841129
0.841129
0.841148
0.841167
0.841186
0.841205
0.841205
0.841223
0.841242
0.841261
0.84128
0.84128
0.841299
0.841318
0.841337
0.841355
0.841355
0.841374
0.841393
0.841412
0.841431
0.841431
0.84145
0.841469
0.841488
0.841507
0.841507
0.841526
0.841545
0.841564
0.841583
0.841583
0.841601
0.84162
0.841639
0.841658
0.841658
0.841677
0.841696
0.841715
0.841734
0.841734
0.841754
0.841773
0.841792
0.841811
0.841811
0.84183
0.841849
0.841868
0.841887
0.841887
0.841906
0.841925
0.841944
0.841963
0.841963
0.841983
0.842002
0.842021
0.84204
0.84204
0.842059
0.842078
0.842098
0.842117
0.842117
0.842136
0.842155
0.842174
0.842194
0.842194
0.842213
0.842232
0.842251
0.84227
0.84227
0.84229
0.842309
0.842328
0.842347
0.842347
0.842367
0.842386
0.842405
0.842424
0.842424
0.842444
0.842463
0.842482
0.842502
0.842502
0.842521
0.84254
0.842559
0.842579
0.842579
0.842598
0.842617
0.842637
0.842656
0.842656
0.842675
0.842695
0.842714
0.842733
0.842733
0.842753
0.842772
0.842791
0.842811
0.842811
0.84283
0.84285
0.842869
0.842889
0.842889
0.842908
0.842928
0.842948
0.842967
0.842967
0.842987
0.843007
0.843026
0.843046
0.843046
0.843066
0.843085
0.843105
0.843125
0.843125
0.843145
0.843164
0.843184
0.843204
0.843204
0.843223
0.843243
0.843263
0.843283
0.843283
0.843302
0.843322
0.843342
0.843362
0.843362
0.843381
0.843401
0.843421
0.843441
0.843441
0.84346
0.84348
0.8435
0.84352
0.84352
0.843539
0.843559
0.843579
0.843599
0.843599
0.843619
0.843639
0.843658
0.843678
0.843678
0.843698
0.843718
0.843738
0.843758
0.843758
0.843777
0.843797
0.843817
0.843837
0.843837
0.843857
0.843877
0.843897
0.843917
0.843917
0.843937
0.843957
0.843977
0.843997
0.843997
0.844016
0.844036
0.844056
0.844076
0.844076
0.844096
0.844116
0.844136
0.844156
0.844156
0.844176
0.844196
0.844216
0.844236
0.844236
0.844256
0.844277
0.844297
0.844317
0.844317
0.844337
0.844357
0.844377
0.844397
0.844397
0.844417
0.844437
0.844457
0.844477
0.844477
0.844497
0.844517
0.844537
0.844557
0.844557
0.844578
0.844598
0.844618
0.844638
0.844638
0.844658
0.844678
0.844698
0.844718
0.844718
0.844738
0.844758
0.844779
0.844799
0.844799
0.844819
0.844839
0.844859
0.84488
0.84488
0.8449
0.84492
0.84494
0.844961
0.844961
0.844981
0.845001
0.845022
0.845042
0.845042
0.845063
0.845083
0.845103
0.845124
0.845124
0.845144
0.845165
0.845185
0.845206
0.845206
0.845226
0.845247
0.845267
0.845288
0.845288
0.845308
0.845329
0.845349
0.84537
0.84537
0.84539
0.845411
0.845431
0.845452
0.845452
0.845473
0.845493
0.845514
0.845534
0.845534
0.845555
0.845575
0.845596
0.845616
0.845616
0.845637
0.845657
0.845678
0.845699
0.845699
0.845719
0.84574
0.84576
0.845781
0.845781
0.845802
0.845822
0.845843
0.845863
0.845863
0.845884
0.845905
0.845925
0.845946
0.845946
0.845967
0.845987
0.846008
0.846029
0.846029
0.846049
0.84607
0.846091
0.846111
0.846111
0.846132
0.846153
0.846173
0.846194
0.846194
0.846215
0.846236
0.846256
0.846277
0.846277
0.846298
0.846318
0.846339
0.84636
0.84636
0.846381
0.846401
0.846422
0.846443
0.846443
0.846464
0.846485
0.846505
0.846526
0.846526
0.846547
0.846568
0.846588
0.846609
0.846609
0.84663
0.846651
0.846672
0.846692
0.846692
0.846713
0.846734
0.846755
0.846776
0.846776
0.846796
0.846817
0.846838
0.846859
0.846859
0.84688
0.846901
0.846921
0.846942
0.846942
0.846963
0.846984
0.847005
0.847026
0.847026
0.847047
0.847068
0.84709
0.847111
0.847111
0.847132
0.847153
0.847174
0.847195
0.847195
0.847216
0.847237
0.847259
0.84728
0.84728
0.847301
0.847322
0.847343
0.847364
0.847364
0.847386
0.847407
0.847428
0.847449
0.847449
0.84747
0.847492
0.847513
0.847534
0.847534
0.847555
0.847576
0.847597
0.847619
0.847619
0.84764
0.847661
0.847682
0.847704
0.847704
0.847725
0.847746
0.847767
0.847788
0.847788
0.84781
0.847831
0.847852
0.847873
0.847873
0.847895
0.847916
0.847937
0.847958
0.847958
0.84798
0.848001
0.848022
0.848044
0.848044
0.848065
0.848086
0.848107
0.848129
0.848129
0.84815
0.848171
0.848193
0.848214
0.848214
0.848235
0.848257
0.848278
0.848299
0.848299
0.848321
0.848342
0.848363
0.848385
0.848385
0.848406
0.848427
0.848449
0.84847
0.84847
0.848492
0.848513
0.848534
0.848556
0.848556
0.848577
0.848598
0.84862
0.848641
0.848641
0.848662
0.848684
0.848705
0.848727
0.848727
0.848748
0.848769
0.848791
0.848812
0.848812
0.848834
0.848855
0.848877
0.848898
0.848898
0.84892
0.848941
0.848963
0.848984
0.848984
0.849006
0.849027
0.849049
0.849071
0.849071
0.849092
0.849114
0.849136
0.849157
0.849157
0.849179
0.849201
0.849222
0.849244
0.849244
0.849266
0.849288
0.849309
0.849331
0.849331
0.849353
0.849374
0.849396
0.849418
0.849418
0.84944
0.849461
0.849483
0.849505
0.849505
0.849527
0.849548
0.84957
0.849592
0.849592
0.849614
0.849636
0.849657
0.849679
0.849679
0.849701
0.849723
0.849744
0.849766
0.849766
0.849788
0.84981
0.849831
0.849853
0.849853
0.849875
0.849897
0.849919
0.84994
0.84994
0.849962
0.849984
0.850006
0.850028
0.850028
0.85005
0.850071
0.850093
0.850115
0.850115
0.850137
0.850159
0.850181
0.850202
0.850202
0.850224
0.850246
0.850268
0.85029
0.85029
0.850312
0.850334
0.850355
0.850377
0.850377
0.850399
0.850421
0.850443
0.850465
0.850465
0.850487
0.850508
0.85053
0.850552
0.850552
0.850574
0.850596
0.850618
0.85064
0.85064
0.850662
0.850684
0.850705
0.850727
0.850727
0.850749
0.850771
0.850793
0.850815
0.850815
0.850837
0.850859
0.850881
0.850903
0.850903
0.850925
0.850947
0.850969
0.850991
0.850991
0.851013
0.851035
0.851058
0.85108
0.85108
0.851102
0.851124
0.851146
0.851169
0.851169
0.851191
0.851213
0.851235
0.851257
0.851257
0.85128
0.851302
0.851324
0.851346
0.851346
0.851368
0.851391
0.851413
0.851435
0.851435
0.851457
0.85148
0.851502
0.851524
0.851524
0.851546
0.851569
0.851591
0.851613
0.851613
0.851635
0.851657
0.85168
0.851702
0.851702
0.851724
0.851746
0.851769
0.851791
0.851791
0.851813
0.851835
0.851858
0.85188
0.85188
0.851902
0.851925
0.851947
0.851969
0.851969
0.851991
0.852014
0.852036
0.852058
0.852058
0.85208
0.852103
0.852125
0.852147
0.852147
0.85217
0.852192
0.852214
0.852237
0.852237
0.852259
0.852281
0.852303
0.852326
0.852326
0.852348
0.85237
0.852393
0.852415
0.852415
0.852437
0.85246
0.852482
0.852504
0.852504
0.852526
0.852549
0.852571
0.852593
0.852593
0.852616
0.852638
0.85266
0.852683
0.852683
0.852705
0.852727
0.85275
0.852772
0.852772
0.852795
0.852817
0.85284
0.852862
0.852862
0.852885
0.852907
0.85293
0.852952
0.852952
0.852975
0.852997
0.85302
0.853042
0.853042
0.853065
0.853088
0.85311
0.853133
0.853133
0.853156
0.853178
0.853201
0.853223
0.853223
0.853246
0.853269
0.853291
0.853314
0.853314
0.853337
0.853359
0.853382
0.853404
0.853404
0.853427
0.85345
0.853472
0.853495
0.853495
0.853518
0.85354
0.853563
0.853586
0.853586
0.853608
0.853631
0.853653
0.853676
0.853676
0.853699
0.853721
0.853744
0.853767
0.853767
0.853789
0.853812
0.853835
0.853857
0.853857
0.85388
0.853903
0.853925
0.853948
0.853948
0.853971
0.853993
0.854016
0.854039
0.854039
0.854061
0.854084
0.854107
0.854129
0.854129
0.854152
0.854175
0.854197
0.85422
0.85422
0.854243
0.854265
0.854288
0.854311
0.854311
0.854333
0.854356
0.854379
0.854401
0.854401
0.854424
0.854447
0.854469
0.854492
0.854492
0.854515
0.854537
0.85456
0.854583
0.854583
0.854606
0.854628
0.854651
0.854674
0.854674
0.854697
0.85472
0.854742
0.854765
0.854765
0.854788
0.854811
0.854834
0.854857
0.854857
0.85488
0.854903
0.854926
0.854949
0.854949
0.854972
0.854995
0.855018
0.85504
0.85504
0.855063
0.855086
0.855109
0.855132
0.855132
0.855155
0.855178
0.855201
0.855224
0.855224
0.855247
0.85527
0.855293
0.855316
0.855316
0.855339
0.855362
0.855385
0.855408
0.855408
0.855431
0.855454
0.855477
0.8555
0.8555
0.855523
0.855546
0.855569
0.855592
0.855592
0.855615
0.855638
0.855661
0.855684
0.855684
0.855707
0.85573
0.855753
0.855776
0.855776
0.855799
0.855822
0.855845
0.855868
0.855868
0.855891
0.855914
0.855936
0.855959
0.855959
0.855982
0.856005
0.856028
0.856051
0.856051
0.856074
0.856097
0.85612
0.856143
0.856143
0.856166
0.856189
0.856212
0.856235
0.856235
0.856258
0.856281
0.856304
0.856327
0.856327
0.85635
0.856373
0.856396
0.856419
0.856419
0.856442
0.856465
0.856489
0.856512
0.856512
0.856535
0.856558
0.856581
0.856604
0.856604
0.856627
0.856651
0.856674
0.856697
0.856697
0.85672
0.856743
0.856767
0.85679
0.85679
0.856813
0.856836
0.85686
0.856883
0.856883
0.856906
0.856929
0.856953
0.856976
0.856976
0.856999
0.857023
0.857046
0.857069
0.857069
0.857092
0.857116
0.857139
0.857162
0.857162
0.857185
0.857209
0.857232
0.857255
0.857255
0.857278
0.857302
0.857325
0.857348
0.857348
0.857371
0.857395
0.857418
0.857441
0.857441
0.857464
0.857488
0.857511
0.857534
0.857534
0.857557
0.857581
0.857604
0.857627
0.857627
0.85765
0.857674
0.857697
0.85772
0.85772
0.857743
0.857767
0.85779
0.857813
0.857813
0.857836
0.857859
0.857883
0.857906
0.857906
0.857929
0.857952
0.857976
0.857999
0.857999
0.858022
0.858045
0.858069
0.858092
0.858092
0.858115
0.858138
0.858162
0.858185
0.858185
0.858208
0.858232
0.858255
0.858278
0.858278
0.858302
0.858325
0.858348
0.858372
0.858372
0.858395
0.858419
0.858442
0.858466
0.858466
0.858489
0.858513
0.858536
0.85856
0.85856
0.858583
0.858607
0.85863
0.858653
0.858653
0.858677
0.8587
0.858724
0.858747
0.858747
0.858771
0.858794
0.858818
0.858841
0.858841
0.858865
0.858888
0.858912
0.858935
0.858935
0.858959
0.858982
0.859006
0.859029
0.859029
0.859053
0.859076
0.8591
0.859123
0.859123
0.859147
0.85917
0.859194
0.859217
0.859217
0.859241
0.859264
0.859288
0.859311
0.859311
0.859335
0.859358
0.859382
0.859405
0.859405
0.859429
0.859452
0.859475
0.859499
0.859499
0.859522
0.859546
0.859569
0.859593
0.859593
0.859616
0.85964
0.859663
0.859687
0.859687
0.85971
0.859733
0.859757
0.85978
0.85978
0.859804
0.859827
0.859851
0.859874
0.859874
0.859898
0.859921
0.859945
0.859968
0.859968
0.859992
0.860016
0.860039
0.860063
0.860063
0.860086
0.86011
0.860133
0.860157
0.860157
0.860181
0.860204
0.860228
0.860252
0.860252
0.860275
0.860299
0.860323
0.860346
0.860346
0.86037
0.860394
0.860418
0.860441
0.860441
0.860465
0.860489
0.860512
0.860536
0.860536
0.86056
0.860583
0.860607
0.860631
0.860631
0.860655
0.860678
0.860702
0.860726
0.860726
0.860749
0.860773
0.860797
0.86082
0.86082
0.860844
0.860868
0.860891
0.860915
0.860915
0.860939
0.860962
0.860986
0.86101
0.86101
0.861033
0.861057
0.861081
0.861104
0.861104
0.861128
0.861152
0.861175
0.861199
0.861199
0.861222
0.861246
0.86127
0.861293
0.861293
0.861317
0.861341
0.861364
0.861388
0.861388
0.861412
0.861435
0.861459
0.861483
0.861483
0.861506
0.86153
0.861554
0.861577
0.861577
0.861601
0.861625
0.861648
0.861672
0.861672
0.861696
0.861719
0.861743
0.861767
0.861767
0.861791
0.861814
0.861838
0.861862
0.861862
0.861886
0.86191
0.861934
0.861957
0.861957
0.861981
0.862005
0.862029
0.862053
0.862053
0.862077
0.8621
0.862124
0.862148
0.862148
0.862172
0.862196
0.86222
0.862244
0.862244
0.862267
0.862291
0.862315
0.862339
0.862339
0.862363
0.862387
0.862411
0.862434
0.862434
0.862458
0.862482
0.862506
0.86253
0.86253
0.862554
0.862577
0.862601
0.862625
0.862625
0.862649
0.862673
0.862697
0.86272
0.86272
0.862744
0.862768
0.862792
0.862816
0.862816
0.862839
0.862863
0.862887
0.862911
0.862911
0.862935
0.862958
0.862982
0.863006
0.863006
0.86303
0.863053
0.863077
0.863101
0.863101
0.863125
0.863149
0.863172
0.863196
0.863196
0.86322
0.863244
0.863268
0.863292
0.863292
0.863315
0.863339
0.863363
0.863387
0.863387
0.863411
0.863435
0.863459
0.863483
0.863483
0.863507
0.863531
0.863554
0.863578
0.863578
0.863602
0.863626
0.86365
0.863674
0.863674
0.863698
0.863722
0.863746
0.86377
0.86377
0.863794
0.863818
0.863842
0.863866
0.863866
0.86389
0.863914
0.863938
0.863962
0.863962
0.863986
0.86401
0.864034
0.864058
0.864058
0.864082
0.864106
0.86413
0.864154
0.864154
0.864178
0.864202
0.864226
0.86425
0.86425
0.864274
0.864298
0.864322
0.864346
0.864346
0.86437
0.864393
0.864417
0.864441
0.864441
0.864465
0.864489
0.864513
0.864537
0.864537
0.864561
0.864585
0.864609
0.864633
0.864633
0.864657
0.86468
0.864704
0.864728
0.864728
0.864752
0.864776
0.8648
0.864824
0.864824
0.864848
0.864872
0.864896
0.86492
0.86492
0.864944
0.864968
0.864992
0.865016
0.865016
0.86504
0.865064
0.865088
0.865112
0.865112
0.865136
0.86516
0.865184
0.865208
0.865208
0.865232
0.865256
0.86528
0.865304
0.865304
0.865329
0.865353
0.865377
0.865401
0.865401
0.865425
0.865449
0.865473
0.865497
0.865497
0.865521
0.865545
0.865569
0.865594
0.865594
0.865618
0.865642
0.865666
0.86569
0.86569
0.865714
0.865738
0.865762
0.865786
0.865786
0.86581
0.865834
0.865858
0.865882
0.865882
0.865906
0.86593
0.865955
0.865979
0.865979
0.866003
0.866027
0.866051
0.866075
0.866075
0.866099
0.866123
0.866147
0.866171
0.866171
0.866195
0.866219
0.866243
0.866267
0.866267
0.866291
0.866315
0.866339
0.866363
0.866363
0.866387
0.866411
0.866435
0.866459
0.866459
0.866483
0.866507
0.866531
0.866555
0.866555
0.866579
0.866603
0.866628
0.866652
0.866652
0.866676
0.8667
0.866724
0.866748
0.866748
0.866772
0.866797
0.866821
0.866845
0.866845
0.866869
0.866893
0.866917
0.866942
0.866942
0.866966
0.86699
0.867014
0.867038
0.867038
0.867062
0.867087
0.867111
0.867135
0.867135
0.867159
0.867183
0.867208
0.867232
0.867232
0.867256
0.86728
0.867304
0.867328
0.867328
0.867352
0.867377
0.867401
0.867425
0.867425
0.867449
0.867473
0.867497
0.867521
0.867521
0.867546
0.86757
0.867594
0.867618
0.867618
0.867642
0.867666
0.86769
0.867714
0.867714
0.867738
0.867763
0.867787
0.867811
0.867811
0.867835
0.867859
0.867883
0.867907
0.867907
0.867931
0.867955
0.867979
0.868004
0.868004
0.868028
0.868052
0.868076
0.8681
0.8681
0.868124
0.868148
0.868173
0.868197
0.868197
0.868221
0.868245
0.868269
0.868294