<?xml version="1.0"?>
<VTKFile type="UnstructuredGrid" version="0.1" byte_order="LittleEndian">
<UnstructuredGrid>
<Piece NumberOfPoints="5000" NumberOfCells="4000">
<PointData Scalars="Reaction 0">
<DataArray type="Float32" Name="Reaction 0" format="ascii">
0.336874
0.336874
0.336874
0.336874
0.336874
0.336874
0.336874
0.336874
0.336875
0.336875
0.336875
0.336875
0.336875
0.336876
0.336876
0.336876
0.336877
0.336877
0.336877
0.336878
0.336878
0.336878
0.336879
0.336879
0.33688
0.33688
0.336881
0.336881
0.336882
0.336883
0.336883
0.336883
0.336884
0.336885
0.336886
0.336886
0.336887
0.336888
0.336889
0.33689
0.33689
0.336891
0.336892
0.336893
0.336894
0.336894
0.336895
0.336896
0.336897
0.336898
0.336898
0.3369
0.336901
0.336902
0.336904
0.336904
0.336905
0.336906
0.336908
0.336909
0.336909
0.336911
0.336912
0.336914
0.336915
0.336915
0.336917
0.336918
0.33692
0.336922
0.336922
0.336924
0.336925
0.336927
0.336929
0.336929
0.336931
0.336933
0.336935
0.336937
0.336937
0.336938
0.33694
0.336943
0.336945
0.336945
0.336947
0.336949
0.336951
0.336953
0.336953
0.336955
0.336958
0.33696
0.336962
0.336962
0.336965
0.336967
0.336969
0.336972
0.336972
0.336974
0.336977
0.336979
0.336982
0.336982
0.336984
0.336987
0.33699
0.336992
0.336992
0.336995
0.336998
0.337
0.337003
0.337003
0.337006
0.337009
0.337012
0.337015
0.337015
0.337018
0.337021
0.337024
0.337027
0.337027
0.33703
0.337033
0.337036
0.337039
0.337039
0.337042
0.337046
0.337049
0.337052
0.337052
0.337055
0.337059
0.337062
0.337066
0.337066
0.337069
0.337072
0.337076
0.33708
0.33708
0.337083
0.337087
0.33709
0.337094
0.337094
0.337098
0.337101
0.337105
0.337109
0.337109
0.337113
0.337116
0.33712
0.337124
0.337124
0.337128
0.337132
0.337136
0.33714
0.33714
0.337144
0.337148
0.337152
0.337156
0.337156
0.337161
0.337165
0.337169
0.337173
0.337173
0.337178
0.337182
0.337186
0.337191
0.337191
0.337195
0.3372
0.337204
0.337209
0.337209
0.337213
0.337218
0.337222
0.337227
0.337227
0.337232
0.337236
0.337241
0.337246
0.337246
0.33725
0.337255
0.33726
0.337265
0.337265
0.33727
0.337275
0.33728
0.337285
0.337285
0.33729
0.337295
0.3373
0.337305
0.337305
0.33731
0.337315
0.337321
0.337326
0.337326
0.337331
0.337336
0.337342
0.337347
0.337347
0.337353
0.337358
0.337363
0.337369
0.337369
0.337374
0.33738
0.337385
0.337391
0.337391
0.337397
0.337402
0.337408
0.337414
0.337414
0.33742
0.337425
0.337431
0.337437
0.337437
0.337443
0.337449
0.337455
0.337461
0.337461
0.337467
0.337473
0.337479
0.337485
0.337485
0.337491
0.337497
0.337503
0.33751
0.33751
0.337516
0.337522
0.337528
0.337535
0.337535
0.337541
0.337548
0.337554
0.33756
0.33756
0.337567
0.337573
0.33758
0.337587
0.337587
0.337593
0.3376
0.337607
0.337613
0.337613
0.33762
0.337627
0.337634
0.33764
0.33764
0.337647
0.337654
0.337661
0.337668
0.337668
0.337675
0.337682
0.337689
0.337696
0.337696
0.337703
0.33771
0.337717
0.337725
0.337725
0.337732
0.337739
0.337746
0.337754
0.337754
0.337761
0.337768
0.337776
0.337783
0.337783
0.337791
0.337798
0.337806
0.337813
0.337813
0.337821
0.337829
0.337836
0.337844
0.337844
0.337852
0.337859
0.337867
0.337875
0.337875
0.337883
0.337891
0.337898
0.337906
0.337906
0.337914
0.337922
0.33793
0.337938
0.337938
0.337947
0.337955
0.337963
0.337971
0.337971
0.337979
0.337987
0.337996
0.338004
0.338004
0.338012
0.338021
0.338029
0.338037
0.338037
0.338046
0.338054
0.338063
0.338071
0.338071
0.33808
0.338088
0.338097
0.338106
0.338106
0.338114
0.338123
0.338132
0.338141
0.338141
0.33815
0.338158
0.338167
0.338176
0.338176
0.338185
0.338194
0.338203
0.338212
0.338212
0.338221
0.33823
0.338239
0.338248
0.338248
0.338258
0.338267
0.338276
0.338285
0.338285
0.338295
0.338304
0.338313
0.338323
0.338323
0.338332
0.338342
0.338351
0.338361
0.338361
0.33837
0.33838
0.338389
0.338399
0.338399
0.338409
0.338418
0.338428
0.338438
0.338438
0.338448
0.338457
0.338467
0.338477
0.338477
0.338487
0.338497
0.338507
0.338517
0.338517
0.338527
0.338537
0.338547
0.338557
0.338557
0.338567
0.338578
0.338588
0.338598
0.338598
0.338608
0.338619
0.338629
0.338639
0.338639
0.33865
0.33866
0.338671
0.338681
0.338681
0.338692
0.338702
0.338713
0.338723
0.338723
0.338734
0.338745
0.338755
0.338766
0.338766
0.338777
0.338788
0.338798
0.338809
0.338809
0.33882
0.338831
0.338842
0.338853
0.338853
0.338864
0.338875
0.338886
0.338897
0.338897
0.338908
0.338919
0.338931
0.338942
0.338942
0.338953
0.338964
0.338976
0.338987
0.338987
0.338998
0.33901
0.339021
0.339033
0.339033
0.339044
0.339056
0.339067
0.339079
0.339079
0.33909
0.339102
0.339114
0.339125
0.339125
0.339137
0.339149
0.339161
0.339173
0.339173
0.339184
0.339196
0.339208
0.33922
0.33922
0.339232
0.339244
0.339256
0.339268
0.339268
0.33928
0.339293
0.339305
0.339317
0.339317
0.339329
0.339341
0.339354
0.339366
0.339366
0.339378
0.339391
0.339403
0.339415
0.339415
0.339428
0.33944
0.339453
0.339466
0.339466
0.339478
0.339491
0.339503
0.339516
0.339516
0.339529
0.339542
0.339554
0.339567
0.339567
0.33958
0.339593
0.339606
0.339619
0.339619
0.339632
0.339645
0.339658
0.339671
0.339671
0.339684
0.339697
0.33971
0.339723
0.339723
0.339736
0.33975
0.339763
0.339776
0.339776
0.339789
0.339803
0.339816
0.33983
0.33983
0.339843
0.339856
0.33987
0.339883
0.339883
0.339897
0.339911
0.339924
0.339938
0.339938
0.339952
0.339965
0.339979
0.339993
0.339993
0.340007
0.34002
0.340034
0.340048
0.340048
0.340062
0.340076
0.34009
0.340104
0.340104
0.340118
0.340132
0.340146
0.34016
0.34016
0.340175
0.340189
0.340203
0.340217
0.340217
0.340232
0.340246
0.34026
0.340275
0.340275
0.340289
0.340304
0.340318
0.340333
0.340333
0.340347
0.340362
0.340376
0.340391
0.340391
0.340406
0.34042
0.340435
0.34045
0.34045
0.340464
0.340479
0.340494
0.340509
0.340509
0.340524
0.340539
0.340554
0.340569
0.340569
0.340584
0.340599
0.340614
0.340629
0.340629
0.340644
0.340659
0.340675
0.34069
0.34069
0.340705
0.34072
0.340736
0.340751
0.340751
0.340766
0.340782
0.340797
0.340813
0.340813
0.340828
0.340844
0.340859
0.340875
0.340875
0.340891
0.340906
0.340922
0.340938
0.340938
0.340953
0.340969
0.340985
0.341001
0.341001
0.341017
0.341033
0.341049
0.341065
0.341065
0.341081
0.341097
0.341113
0.341129
0.341129
0.341145
0.341161
0.341177
0.341193
0.341193
0.34121
0.341226
0.341242
0.341258
0.341258
0.341275
0.341291
0.341308
0.341324
0.341324
0.341341
0.341357
0.341374
0.34139
0.34139
0.341407
0.341423
0.34144
0.341457
0.341457
0.341473
0.34149
0.341507
0.341524
0.341524
0.341541
0.341558
0.341574
0.341591
0.341591
0.341608
0.341625
0.341642
0.341659
0.341659
0.341677
0.341694
0.341711
0.341728
0.341728
0.341745
0.341762
0.34178
0.341797
0.341797
0.341814
0.341832
0.341849
0.341866
0.341866
0.341884
0.341901
0.341919
0.341936
0.341936
0.341954
0.341972
0.341989
0.342007
0.342007
0.342025
0.342042
0.34206
0.342078
0.342078
0.342096
0.342114
0.342131
0.342149
0.342149
0.342167
0.342185
0.342203
0.342221
0.342221
0.342239
0.342257
0.342276
0.342294
0.342294
0.342312
0.34233
0.342348
0.342367
0.342367
0.342385
0.342403
0.342422
0.34244
0.34244
0.342458
0.342477
0.342495
0.342514
0.342514
0.342532
0.342551
0.34257
0.342588
0.342588
0.342607
0.342626
0.342644
0.342663
0.342663
0.342682
0.342701
0.342719
0.342738
0.342738
0.342757
0.342776
0.342795
0.342814
0.342814
0.342833
0.342852
0.342871
0.34289
0.34289
0.34291
0.342929
0.342948
0.342967
0.342967
0.342986
0.343006
0.343025
0.343044
0.343044
0.343064
0.343083
0.343103
0.343122
0.343122
0.343142
0.343161
0.343181
0.3432
0.3432
0.34322
0.34324
0.343259
0.343279
0.343279
0.343299
0.343319
0.343338
0.343358
0.343358
0.343378
0.343398
0.343418
0.343438
0.343438
0.343458
0.343478
0.343498
0.343518
0.343518
0.343538
0.343558
0.343579
0.343599
0.343599
0.343619
0.343639
0.34366
0.34368
0.34368
0.3437
0.343721
0.343741
0.343762
0.343762
0.343782
0.343803
0.343823
0.343844
0.343844
0.343864
0.343885
0.343906
0.343926
0.343926
0.343947
0.343968
0.343989
0.344009
0.344009
0.34403
0.344051
0.344072
0.344093
0.344093
0.344114
0.344135
0.344156
0.344177
0.344177
0.344198
0.344219
0.34424
0.344261
0.344261
0.344283
0.344304
0.344325
0.344346
0.344346
0.344368
0.344389
0.344411
0.344432
0.344432
0.344453
0.344475
0.344496
0.344518
0.344518
0.34454
0.344561
0.344583
0.344604
0.344604
0.344626
0.344648
0.34467
0.344691
0.344691
0.344713
0.344735
0.344757
0.344779
0.344779
0.344801
0.344823
0.344845
0.344867
0.344867
0.344889
0.344911
0.344933
0.344955
0.344955
0.344977
0.344999
0.345022
0.345044
0.345044
0.345066
0.345089
0.345111
0.345133
0.345133
0.345156
0.345178
0.345201
0.345223
0.345223
0.345246
0.345268
0.345291
0.345313
0.345313
0.345336
0.345359
0.345382
0.345404
0.345404
0.345427
0.34545
0.345473
0.345496
0.345496
0.345518
0.345541
0.345564
0.345587
0.345587
0.34561
0.345633
0.345657
0.34568
0.34568
0.345703
0.345726
0.345749
0.345772
0.345772
0.345796
0.345819
0.345842
0.345866
0.345866
0.345889
0.345912
0.345936
0.345959
0.345959
0.345983
0.346006
0.34603
0.346053
0.346053
0.346077
0.346101
0.346124
0.346148
0.346148
0.346172
0.346196
0.346219
0.346243
0.346243
0.346267
0.346291
0.346315
0.346339
0.346339
0.346363
0.346387
0.346411
0.346435
0.346435
0.346459
0.346483
0.346507
0.346532
0.346532
0.346556
0.34658
0.346604
0.346629
0.346629
0.346653
0.346677
0.346702
0.346726
0.346726
0.346751
0.346775
0.3468
0.346824
0.346824
0.346849
0.346874
0.346898
0.346923
0.346923
0.346948
0.346972
0.346997
0.347022
0.347022
0.347047
0.347072
0.347096
0.347121
0.347121
0.347146
0.347171
0.347196
0.347221
0.347221
0.347246
0.347272
0.347297
0.347322
0.347322
0.347347
0.347372
0.347397
0.347423
0.347423
0.347448
0.347473
0.347499
0.347524
0.347524
0.34755
0.347575
0.347601
0.347626
0.347626
0.347652
0.347677
0.347703
0.347728
0.347728
0.347754
0.34778
0.347806
0.347831
0.347831
0.347857
0.347883
0.347909
0.347935
0.347935
0.347961
0.347986
0.348012
0.348038
0.348038
0.348064
0.348091
0.348117
0.348143
0.348143
0.348169
0.348195
0.348221
0.348248
0.348248
0.348274
0.3483
0.348326
0.348353
0.348353
0.348379
0.348406
0.348432
0.348459
0.348459
0.348485
0.348512
0.348538
0.348565
0.348565
0.348591
0.348618
0.348645
0.348672
0.348672
0.348698
0.348725
0.348752
0.348779
0.348779
0.348806
0.348832
0.348859
0.348886
0.348886
0.348913
0.34894
0.348967
0.348995
0.348995
0.349022
0.349049
0.349076
0.349103
0.349103
0.34913
0.349158
0.349185
0.349212
0.349212
0.34924
0.349267
0.349294
0.349322
0.349322
0.349349
0.349377
0.349404
0.349432
0.349432
0.34946
0.349487
0.349515
0.349542
0.349542
0.34957
0.349598
0.349626
0.349654
0.349654
0.349681
0.349709
0.349737
0.349765
0.349765
0.349793
0.349821
0.349849
0.349877
0.349877
0.349905
0.349933
0.349961
0.34999
0.34999
0.350018
0.350046
0.350074
0.350102
0.350102
0.350131
0.350159
0.350187
0.350216
0.350216
0.350244
0.350273
0.350301
0.35033
0.35033
0.350358
0.350387
0.350416
0.350444
0.350444
0.350473
0.350502
0.35053
0.350559
0.350559
0.350588
0.350617
0.350646
0.350674
0.350674
0.350703
0.350732
0.350761
0.35079
0.35079
0.350819
0.350848
0.350877
0.350907
0.350907
0.350936
0.350965
0.350994
0.351023
0.351023
0.351053
0.351082
0.351111
0.351141
0.351141
0.35117
0.351199
0.351229
0.351258
0.351258
0.351288
0.351317
0.351347
0.351377
0.351377
0.351406
0.351436
0.351466
0.351495
0.351495
0.351525
0.351555
0.351585
0.351614
0.351614
0.351644
0.351674
0.351704
0.351734
0.351734
0.351764
0.351794
0.351824
0.351854
0.351854
0.351884
0.351915
0.351945
0.351975
0.351975
0.352005
0.352035
0.352066
0.352096
0.352096
0.352126
0.352157
0.352187
0.352218
0.352218
0.352248
0.352279
0.352309
0.35234
0.35234
0.35237
0.352401
0.352431
0.352462
0.352462
0.352493
0.352524
0.352554
0.352585
0.352585
0.352616
0.352647
0.352678
0.352709
0.352709
0.35274
0.352771
0.352802
0.352833
0.352833
0.352864
0.352895
0.352926
0.352957
0.352957
0.352988
0.353019
0.353051
0.353082
0.353082
0.353113
0.353145
0.353176
0.353207
0.353207
0.353239
0.35327
0.353302
0.353333
0.353333
0.353365
0.353396
0.353428
0.35346
0.35346
0.353491
0.353523
0.353555
0.353586
0.353586
0.353618
0.35365
0.353682
0.353714
0.353714
0.353746
0.353778
0.35381
0.353842
0.353842
0.353874
0.353906
0.353938
0.35397
0.35397
0.354002
0.354034
0.354066
0.354099
0.354099
0.354131
0.354163
0.354195
0.354228
0.354228
0.35426
0.354293
0.354325
0.354357
0.354357
0.35439
0.354422
0.354455
0.354488
0.354488
0.35452
0.354553
0.354586
0.354618
0.354618
0.354651
0.354684
0.354717
0.354749
0.354749
0.354782
0.354815
0.354848
0.354881
0.354881
0.354914
0.354947
0.35498
0.355013
0.355013
0.355046
0.355079
0.355112
0.355146
0.355146
0.355179
0.355212
0.355245
0.355279
0.355279
0.355312
0.355345
0.355379
0.355412
0.355412
0.355446
0.355479
0.355513
0.355546
0.355546
0.35558
0.355613
0.355647
0.355681
0.355681
0.355714
0.355748
0.355782
0.355816
0.355816
0.355849
0.355883
0.355917
0.355951
0.355951
0.355985
0.356019
0.356053
0.356087
0.356087
0.356121
0.356155
0.356189
0.356223
0.356223
0.356257
0.356292
0.356326
0.35636
0.35636
0.356394
0.356429
0.356463
0.356497
0.356497
0.356532
0.356566
0.356601
0.356635
0.356635
0.35667
0.356704
0.356739
0.356773
0.356773
0.356808
0.356843
0.356877
0.356912
0.356912
0.356947
0.356982
0.357017
0.357051
0.357051
0.357086
0.357121
0.357156
0.357191
0.357191
0.357226
0.357261
0.357296
0.357331
0.357331
0.357366
0.357401
0.357437
0.357472
0.357472
0.357507
0.357542
0.357578
0.357613
0.357613
0.357648
0.357684
0.357719
0.357755
0.357755
0.35779
0.357826
0.357861
0.357897
0.357897
0.357932
0.357968
0.358003
0.358039
0.358039
0.358075
0.358111
0.358146
0.358182
0.358182
0.358218
0.358254
0.35829
0.358326
0.358326
0.358362
0.358398
0.358434
0.35847
0.35847
0.358506
0.358542
0.358578
0.358614
0.358614
0.35865
0.358686
0.358723
0.358759
0.358759
0.358795
0.358832
0.358868
0.358904
0.358904
0.358941
0.358977
0.359014
0.35905
0.35905
0.359087
0.359123
0.35916
0.359196
0.359196
0.359233
0.35927
0.359307
0.359343
0.359343
0.35938
0.359417
0.359454
0.359491
0.359491
0.359527
0.359564
0.359601
0.359638
0.359638
0.359675
0.359712
0.359749
0.359786
0.359786
0.359824
0.359861
0.359898
0.359935
0.359935
0.359972
0.36001
0.360047
0.360084
0.360084
0.360122
0.360159
0.360197
0.360234
0.360234
0.360271
0.360309
0.360347
0.360384
0.360384
0.360422
0.360459
0.360497
0.360535
0.360535
0.360572
0.36061
0.360648
0.360686
0.360686
0.360724
0.360761
0.360799
0.360837
0.360837
0.360875
0.360913
0.360951
0.360989
0.360989
0.361027
0.361065
0.361104
0.361142
0.361142
0.36118
0.361218
0.361256
0.361295
0.361295
0.361333
0.361371
0.36141
0.361448
0.361448
0.361487
0.361525
0.361563
0.361602
0.361602
0.361641
0.361679
0.361718
0.361756
0.361756
0.361795
0.361834
0.361872
0.361911
0.361911
0.36195
0.361989
0.362028
0.362066
0.362066
0.362105
0.362144
0.362183
0.362222
0.362222
0.362261
0.3623
0.362339
0.362378
0.362378
0.362418
0.362457
0.362496
0.362535
0.362535
0.362574
0.362614
0.362653
0.362692
0.362692
0.362732
0.362771
0.362811
0.36285
0.36285
0.36289
0.362929
0.362969
0.363008
0.363008
0.363048
0.363087
0.363127
0.363167
0.363167
0.363206
0.363246
0.363286
0.363326
0.363326
0.363366
0.363406
0.363445
0.363485
0.363485
0.363525
0.363565
0.363605
0.363645
0.363645
0.363685
0.363726
0.363766
0.363806
0.363806
0.363846
0.363886
0.363927
0.363967
0.363967
0.364007
0.364047
0.364088
0.364128
0.364128
0.364169
0.364209
0.36425
0.36429
0.36429
0.364331
0.364371
0.364412
0.364452
0.364452
0.364493
0.364534
0.364575
0.364615
0.364615
0.364656
0.364697
0.364738
0.364779
0.364779
0.36482
0.36486
0.364901
0.364942
0.364942
0.364983
0.365024
0.365066
0.365107
0.365107
0.365148
0.365189
0.36523
0.365271
0.365271
0.365313
0.365354
0.365395
0.365437
0.365437
0.365478
0.365519
0.365561
0.365602
0.365602
0.365644
0.365685
0.365727
0.365768
0.365768
0.36581
0.365852
0.365893
0.365935
0.365935
0.365977
0.366018
0.36606
0.366102
0.366102
0.366144
0.366186
0.366228
0.366269
0.366269
0.366311
0.366353
0.366395
0.366437
0.366437
0.366479
0.366522
0.366564
0.366606
0.366606
0.366648
0.36669
0.366733
0.366775
0.366775
0.366817
0.366859
0.366902
0.366944
0.366944
0.366987
0.367029
0.367072
0.367114
0.367114
0.367157
0.367199
0.367242
0.367284
0.367284
0.367327
0.36737
0.367412
0.367455
0.367455
0.367498
0.367541
0.367584
0.367626
0.367626
0.367669
0.367712
0.367755
0.367798
0.367798
0.367841
0.367884
0.367927
0.36797
0.36797
0.368014
0.368057
0.3681
0.368143
0.368143
0.368186
0.36823
0.368273
0.368316
0.368316
0.36836
0.368403
0.368446
0.36849
0.36849
0.368533
0.368577
0.36862
0.368664
0.368664
0.368707
0.368751
0.368795
0.368838
0.368838
0.368882
0.368926
0.36897
0.369013
0.369013
0.369057
0.369101
0.369145
0.369189
0.369189
0.369233
0.369277
0.369321
0.369365
0.369365
0.369409
0.369453
0.369497
0.369541
0.369541
0.369585
0.36963
0.369674
0.369718
0.369718
0.369762
0.369807
0.369851
0.369895
0.369895
0.36994
0.369984
0.370029
0.370073
0.370073
0.370118
0.370162
0.370207
0.370252
0.370252
0.370296
0.370341
0.370386
0.37043
0.37043
0.370475
0.37052
0.370565
0.370609
0.370609
0.370654
0.370699
0.370744
0.370789
0.370789
0.370834
0.370879
0.370924
0.370969
0.370969
0.371014
0.371059
0.371105
0.37115
0.37115
0.371195
0.37124
0.371286
0.371331
0.371331
0.371376
0.371422
0.371467
0.371512
0.371512
0.371558
0.371603
0.371649
0.371694
0.371694
0.37174
0.371786
0.371831
0.371877
0.371877
0.371923
0.371968
0.372014
0.37206
0.37206
0.372106
0.372151
0.372197
0.372243
0.372243
0.372289
0.372335
0.372381
0.372427
0.372427
0.372473
0.372519
0.372565
0.372611
0.372611
0.372657
0.372704
0.37275
0.372796
0.372796
0.372842
0.372889
0.372935
0.372981
0.372981
0.373028
0.373074
0.373121
0.373167
0.373167
0.373214
0.37326
0.373307
0.373353
0.373353
0.3734
0.373446
0.373493
0.37354
0.37354
0.373587
0.373633
0.37368
0.373727
0.373727
0.373774
0.373821
0.373868
0.373914
0.373914
0.373961
0.374008
0.374055
0.374103
0.374103
0.37415
0.374197
0.374244
0.374291
0.374291
0.374338
0.374385
0.374433
0.37448
0.37448
0.374527
0.374575
0.374622
0.374669
0.374669
0.374717
0.374764
0.374812
0.374859
0.374859
0.374907
0.374954
0.375002
0.37505
0.37505
0.375097
0.375145
0.375193
0.37524
0.37524
0.375288
0.375336
0.375384
0.375432
0.375432
0.375479
0.375527
0.375575
0.375623
0.375623
0.375671
0.375719
0.375767
0.375816
0.375816
0.375864
0.375912
0.37596
0.376008
0.376008
0.376056
0.376105
0.376153
0.376201
0.376201
0.37625
0.376298
0.376346
0.376395
0.376395
0.376443
0.376492
0.37654
0.376589
0.376589
0.376637
0.376686
0.376735
0.376783
0.376783
0.376832
0.376881
0.37693
0.376978
0.376978
0.377027
0.377076
0.377125
0.377174
0.377174
0.377223
0.377272
0.377321
0.37737
0.37737
0.377419
0.377468
0.377517
0.377566
0.377566
0.377615
0.377664
0.377713
0.377763
0.377763
0.377812
0.377861
0.377911
0.37796
0.37796
0.378009
0.378059
0.378108
0.378158
0.378158
0.378207
0.378257
0.378306
0.378356
0.378356
0.378406
0.378455
0.378505
0.378555
0.378555
0.378604
0.378654
0.378704
0.378754
0.378754
0.378803
0.378853
0.378903
0.378953
0.378953
0.379003
0.379053
0.379103
0.379153
0.379153
0.379203
0.379253
0.379304
0.379354
0.379354
0.379404
0.379454
0.379504
0.379555
0.379555
0.379605
0.379655
0.379706
0.379756
0.379756
0.379806
0.379857
0.379907
0.379958
0.379958
0.380008
0.380059
0.38011
0.38016
0.38016
0.380211
0.380262
0.380312
0.380363
0.380363
0.380414
0.380465
0.380515
0.380566
0.380566
0.380617
0.380668
0.380719
0.38077
0.38077
0.380821
0.380872
0.380923
0.380974
0.380974
0.381025
0.381076
0.381127
0.381179
0.381179
0.38123
0.381281
0.381332
0.381384
0.381384
0.381435
0.381486
0.381538
0.381589
0.381589
0.381641
0.381692
0.381744
0.381795
0.381795
0.381847
0.381898
0.38195
0.382002
0.382002
0.382053
0.382105
0.382157
0.382209
0.382209
0.38226
0.382312
0.382364
0.382416
0.382416
0.382468
0.38252
0.382572
0.382624
0.382624
0.382676
0.382728
0.38278
0.382832
0.382832
0.382884
0.382936
0.382988
0.383041
0.383041
0.383093
0.383145
0.383198
0.38325
0.38325
0.383302
0.383355
0.383407
0.38346
0.38346
0.383512
0.383565
0.383617
0.38367
0.38367
0.383722
0.383775
0.383828
0.38388
0.38388
0.383933
0.383986
0.384038
0.384091
0.384091
0.384144
0.384197
0.38425
0.384303
0.384303
0.384356
0.384409
0.384462
0.384515
0.384515
0.384568
0.384621
0.384674
0.384727
0.384727
0.38478
0.384833
0.384887
0.38494
0.38494
0.384993
0.385046
0.3851
0.385153
0.385153
0.385206
0.38526
0.385313
0.385367
0.385367
0.38542
0.385474
0.385527
0.385581
0.385581
0.385635
0.385688
0.385742
0.385796
0.385796
0.385849
0.385903
0.385957
0.386011
0.386011
0.386065
0.386119
0.386172
0.386226
0.386226
0.38628
0.386334
0.386388
0.386442
0.386442
0.386496
0.386551
0.386605
0.386659
0.386659
0.386713
0.386767
0.386822
0.386876
0.386876
0.38693
0.386984
0.387039
0.387093
0.387093
0.387148
0.387202
0.387257
0.387311
0.387311
0.387366
0.38742
0.387475
0.387529
0.387529
0.387584
0.387639
0.387693
0.387748
0.387748
0.387803
0.387858
0.387912
0.387967
0.387967
0.388022
0.388077
0.388132
0.388187
0.388187
0.388242
0.388297
0.388352
0.388407
0.388407
0.388462
0.388517
0.388572
0.388628
0.388628
0.388683
0.388738
0.388793
0.388849
0.388849
0.388904
0.388959
0.389015
0.38907
0.38907
0.389125
0.389181
0.389236
0.389292
0.389292
0.389348
0.389403
0.389459
0.389514
0.389514
0.38957
0.389626
0.389681
0.389737
0.389737
0.389793
0.389849
0.389905
0.38996
0.38996
0.390016
0.390072
0.390128
0.390184
0.390184
0.39024
0.390296
0.390352
0.390408
0.390408
0.390464
0.390521
0.390577
0.390633
0.390633
0.390689
0.390745
0.390802
0.390858
0.390858
0.390914
0.390971
0.391027
0.391084
0.391084
0.39114
0.391197
0.391253
0.39131
0.39131
0.391366
0.391423
0.391479
0.391536
0.391536
0.391593
0.391649
0.391706
0.391763
0.391763
0.39182
0.391877
0.391933
0.39199
0.39199
0.392047
0.392104
0.392161
0.392218
0.392218
0.392275
0.392332
0.392389
0.392446
0.392446
0.392503
0.392561
0.392618
0.392675
0.392675
0.392732
0.392789
0.392847
0.392904
0.392904
0.392961
0.393019
0.393076
0.393134
0.393134
0.393191
0.393249
0.393306
0.393364
0.393364
0.393421
0.393479
0.393537
0.393594
0.393594
0.393652
0.39371
0.393767
0.393825
0.393825
0.393883
0.393941
0.393999
0.394057
0.394057
0.394114
0.394172
0.39423
0.394288
0.394288
0.394346
0.394404
0.394463
0.394521
0.394521
0.394579
0.394637
0.394695
0.394753
0.394753
0.394812
0.39487
0.394928
0.394987
0.394987
0.395045
0.395103
0.395162
0.39522
0.39522
0.395279
0.395337
0.395396
0.395454
0.395454
0.395513
0.395572
0.39563
0.395689
0.395689
0.395748
0.395806
0.395865
0.395924
0.395924
0.395983
0.396042
0.3961
0.396159
0.396159
0.396218
0.396277
0.396336
0.396395
0.396395
0.396454
0.396513
0.396572
0.396631
0.396631
0.396691
0.39675
0.396809
0.396868
0.396868
0.396928
0.396987
0.397046
0.397105
0.397105
0.397165
0.397224
0.397284
0.397343
0.397343
0.397403
0.397462
0.397522
0.397581
0.397581
0.397641
0.3977
0.39776
0.39782
0.39782
0.39788
0.397939
0.397999
0.398059
0.398059
0.398119
0.398179
0.398238
0.398298
0.398298
0.398358
0.398418
0.398478
0.398538
0.398538
0.398598
0.398658
0.398718
0.398779
0.398779
0.398839
0.398899
0.398959
0.399019
0.399019
0.39908
0.39914
0.3992
0.399261
0.399261
0.399321
0.399381
0.399442
0.399502
0.399502
0.399563
0.399623
0.399684
0.399744
0.399744
0.399805
0.399866
0.399926
0.399987
0.399987
0.400048
0.400108
0.400169
0.40023
0.40023
0.400291
0.400352
0.400413
0.400473
0.400473
0.400534
0.400595
0.400656
0.400717
0.400717
0.400778
0.40084
0.400901
0.400962
0.400962
0.401023
0.401084
0.401145
0.401207
0.401207
0.401268
0.401329
0.40139
0.401452
0.401452
0.401513
0.401575
0.401636
0.401698
0.401698
0.401759
0.401821
0.401882
0.401944
0.401944
0.402005
0.402067
0.402129
0.40219
0.40219
0.402252
0.402314
0.402375
0.402437
0.402437
0.402499
0.402561
0.402623
0.402685
0.402685
0.402747
0.402809
0.402871
0.402933
0.402933
0.402995
0.403057
0.403119
0.403181
0.403181
0.403243
0.403305
0.403368
0.40343
0.40343
0.403492
0.403554
0.403617
0.403679
0.403679
0.403741
0.403804
0.403866
0.403929
0.403929
0.403991
0.404054
0.404116
0.404179
0.404179
0.404241
0.404304
0.404367
0.404429
0.404429
0.404492
0.404555
0.404618
0.40468
0.40468
0.404743
0.404806
0.404869
0.404932
0.404932
0.404995
0.405058
0.405121
0.405184
0.405184
0.405247
0.40531
0.405373
0.405436
0.405436
0.405499
0.405562
0.405626
0.405689
0.405689
0.405752
0.405815
0.405879
0.405942
0.405942
0.406006
0.406069
0.406132
0.406196
0.406196
0.406259
0.406323
0.406386
0.40645
0.40645
0.406514
0.406577
0.406641
0.406704
0.406704
0.406768
0.406832
0.406896
0.406959
0.406959
0.407023
0.407087
0.407151
0.407215
0.407215
0.407279
0.407343
0.407407
0.407471
0.407471
0.407535
0.407599
0.407663
0.407727
0.407727
0.407791
0.407855
0.40792
0.407984
0.407984
0.408048
0.408112
0.408177
0.408241
0.408241
0.408305
0.40837
0.408434
0.408499
0.408499
0.408563
0.408628
0.408692
0.408757
0.408757
0.408821
0.408886
0.408951
0.409015
0.409015
0.40908
0.409145
0.409209
0.409274
0.409274
0.409339
0.409404
0.409469
0.409534
0.409534
0.409598
0.409663
0.409728
0.409793
0.409793
0.409858
0.409923
0.409989
0.410054
0.410054
0.410119
0.410184
0.410249
0.410314
0.410314
0.41038
0.410445
0.41051
0.410576
0.410576
0.410641
0.410706
0.410772
0.410837
0.410837
0.410903
0.410968
0.411034
0.411099
0.411099
0.411165
0.41123
0.411296
0.411362
0.411362
0.411427
0.411493
0.411559
0.411624
0.411624
0.41169
0.411756
0.411822
0.411888
0.411888
0.411954
0.41202
0.412086
0.412152
0.412152
0.412218
0.412284
0.41235
0.412416
0.412416
0.412482
0.412548
0.412614
0.41268
0.41268
0.412747
0.412813
0.412879
0.412946
0.412946
0.413012
0.413078
0.413145
0.413211
0.413211
0.413277
0.413344
0.41341
0.413477
0.413477
0.413544
0.41361
0.413677
0.413743
0.413743
0.41381
0.413877
0.413943
0.41401
0.41401
0.414077
0.414144
0.414211
0.414277
0.414277
0.414344
0.414411
0.414478
0.414545
0.414545
0.414612
0.414679
0.414746
0.414813
0.414813
0.41488
0.414948
0.415015
0.415082
0.415082
0.415149
0.415216
0.415284
0.415351
0.415351
0.415418
0.415486
0.415553
0.41562
0.41562
0.415688
0.415755
0.415823
0.41589
0.41589
0.415958
0.416025
0.416093
0.416161
0.416161
0.416228
0.416296
0.416364
0.416431
0.416431
0.416499
0.416567
0.416635
0.416702
0.416702
0.41677
0.416838
0.416906
0.416974
0.416974
0.417042
0.41711
0.417178
0.417246
0.417246
0.417314
0.417382
0.41745
0.417519
0.417519
0.417587
0.417655
0.417723
0.417792
0.417792
0.41786
0.417928
0.417997
0.418065
0.418065
0.418133
0.418202
0.41827
0.418339
0.418339
0.418407
0.418476
0.418544
0.418613
0.418613
0.418682
0.41875
0.418819
0.418888
0.418888
0.418956
0.419025
0.419094
0.419163
0.419163
0.419232
0.4193
0.419369
0.419438
0.419438
0.419507
0.419576
0.419645
0.419714
0.419714
0.419783
0.419852
0.419921
0.419991
0.419991
0.42006
0.420129
0.420198
0.420267
0.420267
0.420337
0.420406
0.420475
0.420545
0.420545
0.420614
0.420683
0.420753
0.420822
0.420822
0.420892
0.420961
0.421031
0.4211
0.4211
0.42117
0.42124
0.421309
0.421379
0.421379
0.421449
0.421518
0.421588
0.421658
0.421658
0.421728
0.421798
0.421867
0.421937
0.421937
0.422007
0.422077
0.422147
0.422217
0.422217
0.422287
0.422357
0.422427
0.422497
0.422497
0.422568
0.422638
0.422708
0.422778
0.422778
0.422848
0.422919
0.422989
0.423059
0.423059
0.42313
0.4232
0.42327
0.423341
0.423341
0.423411
0.423482
0.423552
0.423623
0.423623
0.423693
0.423764
0.423835
0.423905
0.423905
0.423976
0.424047
0.424117
0.424188
0.424188
0.424259
0.42433
0.424401
0.424471
0.424471
0.424542
0.424613
0.424684
0.424755
0.424755
0.424826
0.424897
0.424968
0.425039
0.425039
0.42511
0.425182
0.425253
0.425324
0.425324
0.425395
0.425466
0.425538
0.425609
0.425609
0.42568
0.425752
0.425823
0.425894
0.425894
0.425966
0.426037
0.426109
0.42618
0.42618
0.426252
0.426323
0.426395
0.426466
0.426466
0.426538
0.42661
0.426681
0.426753
0.426753
0.426825
0.426897
0.426968
0.42704
0.42704
0.427112
0.427184
0.427256
0.427328
0.427328
0.4274
0.427472
0.427544
0.427616
0.427616
0.427688
0.42776
0.427832
0.427904
0.427904
0.427976
0.428049
0.428121
0.428193
0.428193
0.428265
0.428338
0.42841
0.428482
0.428482
0.428555
0.428627
0.4287
0.428772
0.428772
0.428845
0.428917
0.42899
0.429062
0.429062
0.429135
0.429208
0.42928
0.429353
0.429353
0.429426
0.429498
0.429571
0.429644
0.429644
0.429717
0.42979
0.429862
0.429935
0.429935
0.430008
0.430081
0.430154
0.430227
0.430227
0.4303
0.430373
0.430446
0.430519
0.430519
0.430593
0.430666
0.430739
0.430812
0.430812
0.430885
0.430959
0.431032
0.431105
0.431105
0.431179
0.431252
0.431325
0.431399
0.431399
0.431472
0.431546
0.431619
0.431693
0.431693
0.431766
0.43184
0.431913
0.431987
0.431987
0.432061
0.432134
0.432208
0.432282
0.432282
0.432356
0.43243
0.432503
0.432577
0.432577
0.432651
0.432725
0.432799
0.432873
0.432873
0.432947
0.433021
0.433095
0.433169
0.433169
0.433243
0.433317
0.433391
0.433465
0.433465
0.43354
0.433614
0.433688
0.433762
0.433762
0.433837
0.433911
0.433985
0.43406
0.43406
0.434134
0.434209
0.434283
0.434358
0.434358
0.434432
0.434507
0.434581
0.434656
0.434656
0.43473
0.434805
0.43488
0.434954
0.434954
0.435029
0.435104
0.435179
0.435253
0.435253
0.435328
0.435403
0.435478
0.435553
0.435553
0.435628
0.435703
0.435778
0.435853
0.435853
0.435928
0.436003
0.436078
0.436153
0.436153
0.436228
0.436304
0.436379
0.436454
0.436454
0.436529
0.436604
0.43668
0.436755
0.436755
0.436831
0.436906
0.436981
0.437057
0.437057
0.437132
0.437208
0.437283
0.437359
0.437359
0.437434
0.43751
0.437586
0.437661
0.437661
0.437737
0.437813
0.437888
0.437964
0.437964
0.43804
0.438116
0.438191
0.438267
0.438267
0.438343
0.438419
0.438495
0.438571
0.438571
0.438647
0.438723
0.438799
0.438875
0.438875
0.438951
0.439027
0.439104
0.43918
0.43918
0.439256
0.439332
0.439408
0.439485
0.439485
0.439561
0.439637
0.439714
0.43979
0.43979
0.439867
0.439943
0.440019
0.440096
0.440096
0.440172
0.440249
0.440326
0.440402
0.440402
0.440479
0.440555
0.440632
0.440709
0.440709
0.440786
0.440862
0.440939
0.441016
0.441016
0.441093
0.44117
0.441246
0.441323
0.441323
0.4414
0.441477
0.441554
0.441631
0.441631
0.441708
0.441785
0.441862
0.44194
0.44194
0.442017
0.442094
0.442171
0.442248
0.442248
0.442326
0.442403
0.44248
0.442558
0.442558
0.442635
0.442712
0.44279
0.442867
0.442867
0.442945
0.443022
0.4431
0.443177
0.443177
0.443255
0.443332
0.44341
0.443488
0.443488