<?xml version="1.0"?>
<VTKFile type="UnstructuredGrid" version="0.1" byte_order="LittleEndian">
<UnstructuredGrid>
<Piece NumberOfPoints="5000" NumberOfCells="4000">
<PointData Scalars="Reaction 0">
<DataArray type="Float32" Name="Reaction 0" format="ascii">
0.567592
0.567592
0.567592
0.567592
0.567592
0.567592
0.567592
0.567592
0.567592
0.567592
0.567592
0.567592
0.567592
0.567592
0.567592
0.567592
0.567592
0.567592
0.567592
0.567592
0.567592
0.567592
0.567592
0.567592
0.567592
0.567592
0.567592
0.567592
0.567592
0.567592
0.567592
0.567592
0.567592
0.567592
0.567593
0.567593
0.567593
0.567593
0.567593
0.567593
0.567593
0.567593
0.567593
0.567593
0.567593
0.567593
0.567593
0.567593
0.567593
0.567593
0.567593
0.567593
0.567593
0.567593
0.567593
0.567593
0.567593
0.567594
0.567594
0.567594
0.567594
0.567594
0.567594
0.567594
0.567594
0.567594
0.567594
0.567594
0.567594
0.567594
0.567594
0.567594
0.567594
0.567594
0.567595
0.567595
0.567595
0.567595
0.567595
0.567595
0.567595
0.567595
0.567595
0.567595
0.567595
0.567595
0.567595
0.567596
0.567596
0.567596
0.567596
0.567596
0.567596
0.567596
0.567596
0.567596
0.567596
0.567596
0.567596
0.567597
0.567597
0.567597
0.567597
0.567597
0.567597
0.567597
0.567597
0.567597
0.567597
0.567598
0.567598
0.567598
0.567598
0.567598
0.567598
0.567598
0.567598
0.567598
0.567599
0.567599
0.567599
0.567599
0.567599
0.567599
0.567599
0.567599
0.567599
0.5676
0.5676
0.5676
0.5676
0.5676
0.5676
0.5676
0.5676
0.5676
0.567601
0.567601
0.567601
0.567601
0.567601
0.567601
0.567601
0.567602
0.567602
0.567602
0.567602
0.567602
0.567602
0.567602
0.567602
0.567603
0.567603
0.567603
0.567603
0.567603
0.567603
0.567603
0.567604
0.567604
0.567604
0.567604
0.567604
0.567604
0.567605
0.567605
0.567605
0.567605
0.567605
0.567605
0.567605
0.567606
0.567606
0.567606
0.567606
0.567606
0.567606
0.567607
0.567607
0.567607
0.567607
0.567607
0.567607
0.567608
0.567608
0.567608
0.567608
0.567608
0.567609
0.567609
0.567609
0.567609
0.567609
0.567609
0.56761
0.56761
0.56761
0.56761
0.56761
0.567611
0.567611
0.567611
0.567611
0.567611
0.567612
0.567612
0.567612
0.567612
0.567612
0.567612
0.567612
0.567613
0.567613
0.567613
0.567613
0.567613
0.567614
0.567614
0.567614
0.567614
0.567614
0.567615
0.567615
0.567615
0.567616
0.567616
0.567616
0.567616
0.567616
0.567617
0.567617
0.567617
0.567617
0.567617
0.567618
0.567618
0.567618
0.567618
0.567618
0.567619
0.567619
0.567619
0.567619
0.56762
0.56762
0.56762
0.56762
0.56762
0.567621
0.567621
0.567621
0.567621
0.567622
0.567622
0.567622
0.567622
0.567623
0.567623
0.567623
0.567623
0.567623
0.567624
0.567624
0.567624
0.567625
0.567625
0.567625
0.567625
0.567626
0.567626
0.567626
0.567626
0.567627
0.567627
0.567627
0.567627
0.567628
0.567628
0.567628
0.567628
0.567628
0.567629
0.567629
0.567629
0.56763
0.56763
0.56763
0.56763
0.567631
0.567631
0.567631
0.567631
0.567632
0.567632
0.567633
0.567633
0.567633
0.567633
0.567634
0.567634
0.567634
0.567634
0.567635
0.567635
0.567635
0.567635
0.567636
0.567636
0.567636
0.567637
0.567637
0.567637
0.567637
0.567638
0.567638
0.567638
0.567639
0.567639
0.567639
0.56764
0.56764
0.56764
0.56764
0.567641
0.567641
0.567641
0.567642
0.567642
0.567642
0.567643
0.567643
0.567643
0.567644
0.567644
0.567644
0.567644
0.567645
0.567645
0.567646
0.567646
0.567646
0.567646
0.567647
0.567647
0.567648
0.567648
0.567648
0.567648
0.567649
0.567649
0.567649
0.56765
0.56765
0.56765
0.567651
0.567651
0.567651
0.567652
0.567652
0.567652
0.567652
0.567653
0.567653
0.567654
0.567654
0.567654
0.567655
0.567655
0.567655
0.567656
0.567656
0.567656
0.567657
0.567657
0.567658
0.567658
0.567658
0.567658
0.567659
0.567659
0.567659
0.56766
0.56766
0.567661
0.567661
0.567661
0.567662
0.567662
0.567663
0.567663
0.567663
0.567664
0.567664
0.567664
0.567665
0.567665
0.567665
0.567666
0.567666
0.567667
0.567667
0.567667
0.567668
0.567668
0.567669
0.567669
0.567669
0.56767
0.56767
0.567671
0.567671
0.567671
0.567672
0.567672
0.567673
0.567673
0.567673
0.567674
0.567674
0.567675
0.567675
0.567675
0.567676
0.567676
0.567677
0.567677
0.567677
0.567678
0.567678
0.567679
0.567679
0.567679
0.56768
0.56768
0.567681
0.567681
0.567681
0.567682
0.567682
0.567683
0.567683
0.567683
0.567684
0.567684
0.567685
0.567685
0.567685
0.567686
0.567686
0.567687
0.567687
0.567687
0.567688
0.567688
0.567689
0.567689
0.56769
0.56769
0.567691
0.567691
0.567691
0.567692
0.567692
0.567693
0.567693
0.567693
0.567694
0.567694
0.567695
0.567696
0.567696
0.567696
0.567697
0.567697
0.567698
0.567698
0.567698
0.567699
0.567699
0.5677
0.5677
0.567701
0.567701
0.567702
0.567702
0.567702
0.567703
0.567704
0.567704
0.567705
0.567705
0.567705
0.567706
0.567706
0.567707
0.567707
0.567708
0.567708
0.567709
0.567709
0.567709
0.56771
0.567711
0.567711
0.567712
0.567712
0.567712
0.567713
0.567714
0.567714
0.567714
0.567715
0.567715
0.567716
0.567717
0.567717
0.567717
0.567718
0.567718
0.567719
0.567719
0.56772
0.56772
0.567721
0.567722
0.567722
0.567722
0.567723
0.567723
0.567724
0.567724
0.567725
0.567725
0.567726
0.567727
0.567727
0.567727
0.567728
0.567729
0.567729
0.567729
0.56773
0.56773
0.567731
0.567732
0.567732
0.567732
0.567733
0.567734
0.567734
0.567734
0.567735
0.567736
0.567736
0.567737
0.567737
0.567738
0.567738
0.567739
0.56774
0.56774
0.56774
0.567741
0.567742
0.567742
0.567742
0.567743
0.567744
0.567744
0.567745
0.567745
0.567746
0.567746
0.567747
0.567748
0.567748
0.567749
0.567749
0.56775
0.567751
0.567751
0.567751
0.567752
0.567753
0.567753
0.567753
0.567754
0.567755
0.567756
0.567756
0.567756
0.567757
0.567758
0.567758
0.567759
0.567759
0.56776
0.56776
0.567761
0.567762
0.567762
0.567763
0.567763
0.567764
0.567765
0.567765
0.567766
0.567766
0.567767
0.567768
0.567768
0.567768
0.567769
0.56777
0.567771
0.567771
0.567771
0.567772
0.567773
0.567774
0.567774
0.567774
0.567775
0.567776
0.567777
0.567777
0.567777
0.567778
0.567779
0.56778
0.56778
0.56778
0.567781
0.567782
0.567783
0.567783
0.567783
0.567784
0.567785
0.567786
0.567786
0.567787
0.567787
0.567788
0.567789
0.567789
0.56779
0.56779
0.567791
0.567792
0.567792
0.567793
0.567794
0.567794
0.567795
0.567795
0.567796
0.567797
0.567798
0.567798
0.567798
0.567799
0.5678
0.567801
0.567802
0.567802
0.567802
0.567803
0.567804
0.567805
0.567805
0.567806
0.567806
0.567807
0.567808
0.567808
0.567809
0.56781
0.567811
0.567811
0.567811
0.567812
0.567813
0.567814
0.567815
0.567815
0.567815
0.567816
0.567817
0.567818
0.567818
0.567819
0.56782
0.567821
0.567821
0.567821
0.567822
0.567823
0.567824
0.567825
0.567825
0.567826
0.567826
0.567827
0.567828
0.567828
0.567829
0.56783
0.567831
0.567832
0.567832
0.567832
0.567833
0.567834
0.567835
0.567835
0.567836
0.567837
0.567838
0.567839
0.567839
0.567839
0.56784
0.567841
0.567842
0.567842
0.567843
0.567844
0.567845
0.567846
0.567846
0.567847
0.567847
0.567848
0.567849
0.567849
0.56785
0.567851
0.567852
0.567853
0.567853
0.567854
0.567855
0.567856
0.567856
0.567856
0.567857
0.567858
0.567859
0.56786
0.56786
0.567861
0.567862
0.567863
0.567864
0.567864
0.567865
0.567866
0.567867
0.567868
0.567868
0.567868
0.567869
0.56787
0.567871
0.567871
0.567872
0.567873
0.567874
0.567875
0.567875
0.567876
0.567877
0.567878
0.567879
0.567879
0.56788
0.567881
0.567882
0.567883
0.567883
0.567884
0.567885
0.567886
0.567886
0.567886
0.567887
0.567888
0.567889
0.56789
0.56789
0.567891
0.567892
0.567893
0.567894
0.567894
0.567895
0.567896
0.567897
0.567898
0.567898
0.567899
0.5679
0.567901
0.567902
0.567902
0.567903
0.567904
0.567905
0.567906
0.567906
0.567907
0.567908
0.567909
0.56791
0.56791
0.567911
0.567912
0.567913
0.567914
0.567914
0.567915
0.567916
0.567917
0.567918
0.567918
0.567919
0.56792
0.567921
0.567922
0.567922
0.567923
0.567924
0.567926
0.567927
0.567927
0.567928
0.567929
0.56793
0.567931
0.567931
0.567932
0.567933
0.567934
0.567935
0.567935
0.567936
0.567937
0.567938
0.567939
0.567939
0.56794
0.567941
0.567942
0.567943
0.567943
0.567944
0.567945
0.567947
0.567948
0.567948
0.567949
0.56795
0.567951
0.567952
0.567952
0.567953
0.567954
0.567955
0.567956
0.567956
0.567957
0.567958
0.56796
0.567961
0.567961
0.567962
0.567963
0.567964
0.567965
0.567965
0.567966
0.567967
0.567968
0.567969
0.567969
0.567971
0.567972
0.567973
0.567974
0.567974
0.567975
0.567976
0.567977
0.567978
0.567978
0.567979
0.567981
0.567982
0.567983
0.567983
0.567984
0.567985
0.567986
0.567987
0.567987
0.567988
0.56799
0.567991
0.567992
0.567992
0.567993
0.567994
0.567995
0.567997
0.567997
0.567998
0.567999
0.568
0.568001
0.568001
0.568002
0.568003
0.568005
0.568006
0.568006
0.568007
0.568008
0.568009
0.56801
0.56801
0.568012
0.568013
0.568014
0.568015
0.568015
0.568016
0.568018
0.568019
0.56802
0.56802
0.568021
0.568022
0.568023
0.568025
0.568025
0.568026
0.568027
0.568028
0.568029
0.568029
0.568031
0.568032
0.568033
0.568034
0.568034
0.568035
0.568037
0.568038
0.568039
0.568039
0.56804
0.568042
0.568043
0.568044
0.568044
0.568045
0.568046
0.568048
0.568049
0.568049
0.56805
0.568051
0.568053
0.568054
0.568054
0.568055
0.568056
0.568058
0.568059
0.568059
0.56806
0.568061
0.568063
0.568064
0.568064
0.568065
0.568066
0.568068
0.568069
0.568069
0.56807
0.568071
0.568073
0.568074
0.568074
0.568075
0.568076
0.568078
0.568079
0.568079
0.56808
0.568082
0.568083
0.568084
0.568084
0.568085
0.568087
0.568088
0.568089
0.568089
0.568091
0.568092
0.568093
0.568094
0.568094
0.568096
0.568097
0.568098
0.5681
0.5681
0.568101
0.568102
0.568104
0.568105
0.568105
0.568106
0.568108
0.568109
0.56811
0.56811
0.568112
0.568113
0.568114
0.568116
0.568116
0.568117
0.568118
0.56812
0.568121
0.568121
0.568122
0.568124
0.568125
0.568126
0.568126
0.568128
0.568129
0.56813
0.568132
0.568132
0.568133
0.568134
0.568136
0.568137
0.568137
0.568138
0.56814
0.568141
0.568142
0.568142
0.568144
0.568145
0.568147
0.568148
0.568148
0.568149
0.568151
0.568152
0.568153
0.568153
0.568155
0.568156
0.568158
0.568159
0.568159
0.56816
0.568162
0.568163
0.568165
0.568165
0.568166
0.568168
0.568169
0.56817
0.56817
0.568172
0.568173
0.568175
0.568176
0.568176
0.568177
0.568179
0.56818
0.568182
0.568182
0.568183
0.568185
0.568186
0.568187
0.568187
0.568189
0.56819
0.568192
0.568193
0.568193
0.568195
0.568196
0.568198
0.568199
0.568199
0.5682
0.568202
0.568203
0.568205
0.568205
0.568206
0.568208
0.568209
0.568211
0.568211
0.568212
0.568214
0.568215
0.568217
0.568217
0.568218
0.56822
0.568221
0.568222
0.568222
0.568224
0.568225
0.568227
0.568228
0.568228
0.56823
0.568231
0.568233
0.568234
0.568234
0.568236
0.568237
0.568239
0.56824
0.56824
0.568242
0.568243
0.568245
0.568246
0.568246
0.568248
0.568249
0.568251
0.568253
0.568253
0.568254
0.568256
0.568257
0.568259
0.568259
0.56826
0.568262
0.568263
0.568265
0.568265
0.568266
0.568268
0.568269
0.568271
0.568271
0.568273
0.568274
0.568276
0.568277
0.568277
0.568279
0.56828
0.568282
0.568283
0.568283
0.568285
0.568287
0.568288
0.56829
0.56829
0.568291
0.568293
0.568294
0.568296
0.568296
0.568298
0.568299
0.568301
0.568302
0.568302
0.568304
0.568306
0.568307
0.568309
0.568309
0.56831
0.568312
0.568314
0.568315
0.568315
0.568317
0.568318
0.56832
0.568322
0.568322
0.568323
0.568325
0.568327
0.568328
0.568328
0.56833
0.568331
0.568333
0.568335
0.568335
0.568336
0.568338
0.56834
0.568341
0.568341
0.568343
0.568345
0.568346
0.568348
0.568348
0.568349
0.568351
0.568353
0.568354
0.568354
0.568356
0.568358
0.568359
0.568361
0.568361
0.568363
0.568364
0.568366
0.568368
0.568368
0.568369
0.568371
0.568373
0.568375
0.568375
0.568376
0.568378
0.56838
0.568381
0.568381
0.568383
0.568385
0.568386
0.568388
0.568388
0.56839
0.568392
0.568393
0.568395
0.568395
0.568397
0.568398
0.5684
0.568402
0.568402
0.568404
0.568405
0.568407
0.568409
0.568409
0.56841
0.568412
0.568414
0.568415
0.568415
0.568417
0.568419
0.568421
0.568422
0.568422
0.568424
0.568426
0.568428
0.56843
0.56843
0.568431
0.568433
0.568435
0.568437
0.568437
0.568438
0.56844
0.568442
0.568444
0.568444
0.568446
0.568447
0.568449
0.568451
0.568451
0.568453
0.568455
0.568456
0.568458
0.568458
0.56846
0.568462
0.568464
0.568465
0.568465
0.568467
0.568469
0.568471
0.568473
0.568473
0.568474
0.568476
0.568478
0.56848
0.56848
0.568482
0.568483
0.568485
0.568487
0.568487
0.568489
0.568491
0.568493
0.568495
0.568495
0.568496
0.568498
0.5685
0.568502
0.568502
0.568504
0.568506
0.568507
0.568509
0.568509
0.568511
0.568513
0.568515
0.568517
0.568517
0.568519
0.568521
0.568522
0.568524
0.568524
0.568526
0.568528
0.56853
0.568532
0.568532
0.568534
0.568536
0.568537
0.568539
0.568539
0.568541
0.568543
0.568545
0.568547
0.568547
0.568549
0.568551
0.568553
0.568555
0.568555
0.568557
0.568558
0.56856
0.568562
0.568562
0.568564
0.568566
0.568568
0.56857
0.56857
0.568572
0.568574
0.568576
0.568578
0.568578
0.56858
0.568582
0.568584
0.568586
0.568586
0.568588
0.56859
0.568592
0.568593
0.568593
0.568595
0.568597
0.568599
0.568601
0.568601
0.568603
0.568605
0.568607
0.568609
0.568609
0.568611
0.568613
0.568615
0.568617
0.568617
0.568619
0.568621
0.568623
0.568625
0.568625
0.568627
0.568629
0.568631
0.568633
0.568633
0.568635
0.568637
0.568639
0.568641
0.568641
0.568643
0.568645
0.568647
0.568649
0.568649
0.568652
0.568654
0.568656
0.568658
0.568658
0.56866
0.568662
0.568664
0.568666
0.568666
0.568668
0.56867
0.568672
0.568674
0.568674
0.568676
0.568678
0.56868
0.568682
0.568682
0.568684
0.568686
0.568689
0.568691
0.568691
0.568693
0.568695
0.568697
0.568699
0.568699
0.568701
0.568703
0.568705
0.568707
0.568707
0.568709
0.568711
0.568714
0.568716
0.568716
0.568718
0.56872
0.568722
0.568724
0.568724
0.568726
0.568729
0.568731
0.568733
0.568733
0.568735
0.568737
0.568739
0.568741
0.568741
0.568744
0.568746
0.568748
0.56875
0.56875
0.568752
0.568754
0.568757
0.568759
0.568759
0.568761
0.568763
0.568765
0.568767
0.568767
0.56877
0.568772
0.568774
0.568776
0.568776
0.568778
0.568781
0.568783
0.568785
0.568785
0.568787
0.568789
0.568792
0.568794
0.568794
0.568796
0.568798
0.5688
0.568803
0.568803
0.568805
0.568807
0.568809
0.568812
0.568812
0.568814
0.568816
0.568818
0.568821
0.568821
0.568823
0.568825
0.568827
0.568829
0.568829
0.568832
0.568834
0.568836
0.568839
0.568839
0.568841
0.568843
0.568845
0.568848
0.568848
0.56885
0.568852
0.568854
0.568857
0.568857
0.568859
0.568861
0.568864
0.568866
0.568866
0.568868
0.56887
0.568873
0.568875
0.568875
0.568877
0.56888
0.568882
0.568884
0.568884
0.568887
0.568889
0.568891
0.568894
0.568894
0.568896
0.568898
0.568901
0.568903
0.568903
0.568905
0.568908
0.56891
0.568912
0.568912
0.568915
0.568917
0.568919
0.568922
0.568922
0.568924
0.568927
0.568929
0.568931
0.568931
0.568934
0.568936
0.568938
0.568941
0.568941
0.568943
0.568946
0.568948
0.56895
0.56895
0.568953
0.568955
0.568958
0.56896
0.56896
0.568962
0.568965
0.568967
0.56897
0.56897
0.568972
0.568974
0.568977
0.568979
0.568979
0.568982
0.568984
0.568987
0.568989
0.568989
0.568991
0.568994
0.568996
0.568999
0.568999
0.569001
0.569004
0.569006
0.569008
0.569008
0.569011
0.569013
0.569016
0.569018
0.569018
0.569021
0.569023
0.569026
0.569028
0.569028
0.569031
0.569033
0.569036
0.569038
0.569038
0.569041
0.569044
0.569046
0.569049
0.569049
0.569051
0.569054
0.569056
0.569059
0.569059
0.569061
0.569064
0.569066
0.569069
0.569069
0.569071
0.569074
0.569076
0.569079
0.569079
0.569081
0.569084
0.569087
0.569089
0.569089
0.569092
0.569094
0.569097
0.569099
0.569099
0.569102
0.569105
0.569107
0.56911
0.56911
0.569112
0.569115
0.569118
0.56912
0.56912
0.569123
0.569125
0.569128
0.569131
0.569131
0.569133
0.569136
0.569138
0.569141
0.569141
0.569144
0.569146
0.569149
0.569151
0.569151
0.569154
0.569157
0.569159
0.569162
0.569162
0.569165
0.569167
0.56917
0.569173
0.569173
0.569175
0.569178
0.569181
0.569183
0.569183
0.569186
0.569189
0.569191
0.569194
0.569194
0.569197
0.569199
0.569202
0.569205
0.569205
0.569207
0.56921
0.569213
0.569216
0.569216
0.569218
0.569221
0.569224
0.569226
0.569226
0.569229
0.569232
0.569235
0.569237
0.569237
0.56924
0.569243
0.569246
0.569248
0.569248
0.569251
0.569254
0.569257
0.569259
0.569259
0.569262
0.569265
0.569268
0.56927
0.56927
0.569273
0.569276
0.569279
0.569281
0.569281
0.569284
0.569287
0.56929
0.569293
0.569293
0.569295
0.569298
0.569301
0.569304
0.569304
0.569307
0.569309
0.569312
0.569315
0.569315
0.569318
0.569321
0.569323
0.569326
0.569326
0.569329
0.569332
0.569335
0.569338
0.569338
0.56934
0.569343
0.569346
0.569349
0.569349
0.569352
0.569355
0.569358
0.569361
0.569361
0.569364
0.569366
0.569369
0.569372
0.569372
0.569375
0.569378
0.569381
0.569384
0.569384
0.569387
0.56939
0.569393
0.569395
0.569395
0.569398
0.569401
0.569404
0.569407
0.569407
0.56941
0.569413
0.569416
0.569419
0.569419
0.569422
0.569425
0.569428
0.569431
0.569431
0.569434
0.569437
0.56944
0.569443
0.569443
0.569445
0.569448
0.569451
0.569454
0.569454
0.569457
0.56946
0.569463
0.569466
0.569466
0.569469
0.569472
0.569475
0.569478
0.569478
0.569481
0.569484
0.569487
0.56949
0.56949
0.569494
0.569497
0.5695
0.569503
0.569503
0.569506
0.569509
0.569512
0.569515
0.569515
0.569518
0.569521
0.569524
0.569527
0.569527
0.56953
0.569533
0.569536
0.569539
0.569539
0.569542
0.569546
0.569549
0.569552
0.569552
0.569555
0.569558
0.569561
0.569564
0.569564
0.569567
0.56957
0.569573
0.569577
0.569577
0.56958
0.569583
0.569586
0.569589
0.569589
0.569592
0.569595
0.569599
0.569602
0.569602
0.569605
0.569608
0.569611
0.569614
0.569614
0.569617
0.569621
0.569624
0.569627
0.569627
0.56963
0.569633
0.569637
0.56964
0.56964
0.569643
0.569646
0.569649
0.569652
0.569652
0.569656
0.569659
0.569662
0.569665
0.569665
0.569668
0.569672
0.569675
0.569678
0.569678
0.569681
0.569685
0.569688
0.569691
0.569691
0.569694
0.569698
0.569701
0.569704
0.569704
0.569708
0.569711
0.569714
0.569718
0.569718
0.569721
0.569724
0.569727
0.569731
0.569731
0.569734
0.569737
0.569741
0.569744
0.569744
0.569747
0.569751
0.569754
0.569757
0.569757
0.569761
0.569764
0.569767
0.569771
0.569771
0.569774
0.569777
0.569781
0.569784
0.569784
0.569787
0.569791
0.569794
0.569797
0.569797
0.569801
0.569804
0.569808
0.569811
0.569811
0.569814
0.569818
0.569821
0.569825
0.569825
0.569828
0.569831
0.569835
0.569838
0.569838
0.569842
0.569845
0.569849
0.569852
0.569852
0.569855
0.569859
0.569862
0.569866
0.569866
0.569869
0.569873
0.569876
0.56988
0.56988
0.569883
0.569887
0.56989
0.569894
0.569894
0.569897
0.569901
0.569904
0.569908
0.569908
0.569911
0.569915
0.569918
0.569922
0.569922
0.569925
0.569929
0.569932
0.569936
0.569936
0.569939
0.569943
0.569946
0.56995
0.56995
0.569953
0.569957
0.569961
0.569964
0.569964
0.569968
0.569971
0.569975
0.569978
0.569978
0.569982
0.569986
0.569989
0.569993
0.569993
0.569996
0.57
0.570003
0.570007
0.570007
0.570011
0.570014
0.570018
0.570021
0.570021
0.570025
0.570029
0.570032
0.570036
0.570036
0.57004
0.570043
0.570047
0.570051
0.570051
0.570054
0.570058
0.570062
0.570065
0.570065
0.570069
0.570073
0.570077
0.57008
0.57008
0.570084
0.570088
0.570091
0.570095
0.570095
0.570099
0.570103
0.570106
0.57011
0.57011
0.570114
0.570118
0.570121
0.570125
0.570125
0.570129
0.570133
0.570136
0.57014
0.57014
0.570144
0.570148
0.570151
0.570155
0.570155
0.570159
0.570163
0.570167
0.57017
0.57017
0.570174
0.570178
0.570182
0.570186
0.570186
0.570189
0.570193
0.570197
0.570201
0.570201
0.570205
0.570209
0.570212
0.570216
0.570216
0.57022
0.570224
0.570228
0.570232
0.570232
0.570236
0.57024
0.570243
0.570247
0.570247
0.570251
0.570255
0.570259
0.570263
0.570263
0.570267
0.570271
0.570275
0.570279
0.570279
0.570282
0.570286
0.57029
0.570294
0.570294
0.570298
0.570302
0.570306
0.57031
0.57031
0.570314
0.570318
0.570322
0.570326
0.570326
0.57033
0.570334
0.570338
0.570342
0.570342
0.570346
0.57035
0.570354
0.570358
0.570358
0.570362
0.570366
0.57037
0.570374
0.570374
0.570378
0.570382
0.570386
0.57039
0.57039
0.570394
0.570398
0.570402
0.570406
0.570406
0.57041
0.570414
0.570418
0.570423
0.570423
0.570427
0.570431
0.570435
0.570439
0.570439
0.570443
0.570447
0.570452
0.570456
0.570456
0.57046
0.570464
0.570468
0.570472
0.570472
0.570476
0.570481
0.570485
0.570489
0.570489
0.570493
0.570497
0.570501
0.570506
0.570506
0.57051
0.570514
0.570518
0.570522
0.570522
0.570527
0.570531
0.570535
0.570539
0.570539
0.570544
0.570548
0.570552
0.570556
0.570556
0.57056
0.570565
0.570569
0.570573
0.570573
0.570578
0.570582
0.570586
0.57059
0.57059
0.570595
0.570599
0.570603
0.570608
0.570608
0.570612
0.570616
0.57062
0.570625
0.570625
0.570629
0.570633
0.570638
0.570642
0.570642
0.570646
0.570651
0.570655
0.57066
0.57066
0.570664
0.570668
0.570673
0.570677
0.570677
0.570681
0.570686
0.57069
0.570695
0.570695
0.570699
0.570703
0.570708
0.570712
0.570712
0.570717
0.570721
0.570726
0.57073
0.57073
0.570734
0.570739
0.570743
0.570748
0.570748
0.570752
0.570757
0.570761
0.570766
0.570766
0.57077
0.570775
0.570779
0.570784
0.570784
0.570788
0.570792
0.570797
0.570801
0.570801
0.570806
0.57081
0.570815
0.570819
0.570819
0.570824
0.570829
0.570833
0.570838
0.570838
0.570842
0.570847
0.570852
0.570856
0.570856
0.570861
0.570866
0.57087
0.570875
0.570875
0.570879
0.570884
0.570889
0.570893
0.570893
0.570898
0.570903
0.570907
0.570912
0.570912
0.570917
0.570921
0.570926
0.570931
0.570931
0.570935
0.57094
0.570945
0.570949
0.570949
0.570954
0.570959
0.570963
0.570968
0.570968
0.570973
0.570978
0.570982
0.570987
0.570987
0.570992
0.570997
0.571001
0.571006
0.571006
0.571011
0.571016
0.57102
0.571025
0.571025
0.57103
0.571035
0.57104
0.571044
0.571044
0.571049
0.571054
0.571059
0.571064
0.571064
0.571068
0.571073
0.571078
0.571083
0.571083
0.571088
0.571093
0.571098
0.571102
0.571102
0.571107
0.571112
0.571117
0.571122
0.571122
0.571127
0.571132
0.571137
0.571142
0.571142
0.571147
0.571151
0.571156
0.571161
0.571161
0.571166
0.571171
0.571176
0.571181
0.571181
0.571186
0.571191
0.571196
0.571201
0.571201
0.571206
0.571211
0.571216
0.571221
0.571221
0.571226
0.571231
0.571236
0.571241
0.571241
0.571246
0.571251
0.571256
0.571261
0.571261
0.571266
0.571271
0.571276
0.571281
0.571281
0.571287
0.571292
0.571297
0.571302
0.571302
0.571307
0.571312
0.571317
0.571322
0.571322
0.571328
0.571333
0.571338
0.571343
0.571343
0.571348
0.571353
0.571359
0.571364
0.571364
0.571369
0.571374
0.571379
0.571384
0.571384
0.57139
0.571395
0.5714
0.571405
0.571405
0.571411
0.571416
0.571421
0.571426
0.571426
0.571432
0.571437
0.571442
0.571447
0.571447
0.571453
0.571458
0.571463
0.571469
0.571469
0.571474
0.571479
0.571484
0.57149
0.57149
0.571495
0.5715
0.571506
0.571511
0.571511
0.571516
0.571522
0.571527
0.571533
0.571533
0.571538
0.571543
0.571549
0.571554
0.571554
0.57156
0.571565
0.57157
0.571576
0.571576
0.571581
0.571587
0.571592
0.571597
0.571597
0.571603
0.571608
0.571614
0.571619
0.571619
0.571625
0.57163
0.571636
0.571641
0.571641
0.571647
0.571652
0.571658
0.571663
0.571663
0.571669
0.571674
0.57168
0.571685
0.571685
0.571691
0.571696
0.571702
0.571707
0.571707
0.571713
0.571719
0.571724
0.57173
0.57173
0.571736
0.571741
0.571747
0.571753
0.571753
0.571758
0.571764
0.57177
0.571775
0.571775
0.571781
0.571787
0.571792
0.571798
0.571798
0.571804
0.571809
0.571815
0.571821
0.571821
0.571826
0.571832
0.571838
0.571844
0.571844
0.571849
0.571855
0.571861
0.571867
0.571867
0.571872
0.571878
0.571884
0.57189
0.57189
0.571896
0.571901
0.571907
0.571913
0.571913
0.571919
0.571925
0.571931
0.571936
0.571936
0.571942
0.571948
0.571954
0.57196
0.57196
0.571966
0.571972
0.571978
0.571983
0.571983
0.571989
0.571995
0.572001
0.572007
0.572007
0.572013
0.572019
0.572025
0.572031
0.572031
0.572037
0.572043
0.572049
0.572055
0.572055
0.572061
0.572067
0.572073
0.572079
0.572079
0.572085
0.572091
0.572097
0.572103
0.572103
0.572109
0.572115
0.572121
0.572127
0.572127
0.572133
0.572139
0.572145
0.572151
0.572151
0.572157
0.572163
0.57217
0.572176
0.572176
0.572182
0.572188
0.572194
0.5722
0.5722
0.572206
0.572213
0.572219
0.572225
0.572225
0.572231
0.572238
0.572244
0.57225
0.57225
0.572256
0.572263
0.572269
0.572275
0.572275
0.572281
0.572288
0.572294
0.5723
0.5723
0.572306
0.572313
0.572319
0.572325
0.572325
0.572332
0.572338
0.572344
0.572351
0.572351
0.572357
0.572363
0.57237
0.572376
0.572376
0.572383
0.572389
0.572395
0.572402
0.572402
0.572408
0.572415
0.572421
0.572427
0.572427
0.572434
0.57244
0.572447
0.572453
0.572453
0.57246
0.572466
0.572473
0.572479
0.572479
0.572486
0.572492
0.572499
0.572505
0.572505
0.572512
0.572518
0.572525
0.572531
0.572531
0.572538
0.572544
0.572551
0.572558
0.572558
0.572564
0.572571
0.572577
0.572584
0.572584
0.572591
0.572597
0.572604
0.572611
0.572611
0.572617
0.572624
0.57263
0.572637
0.572637
0.572644
0.57265
0.572657
0.572664
0.572664
0.57267
0.572677
0.572684
0.572691
0.572691
0.572697
0.572704
0.572711
0.572718
0.572718
0.572725
0.572731
0.572738
0.572745
0.572745
0.572752
0.572759
0.572766
0.572773
0.572773
0.572779
0.572786
0.572793
0.5728
0.5728
0.572807
0.572814
0.572821
0.572828
0.572828
0.572835
0.572842
0.572848
0.572855
0.572855
0.572862
0.572869
0.572876
0.572883
0.572883
0.57289
0.572897
0.572904
0.572911
0.572911
0.572918
0.572925
0.572932
0.572939
0.572939
0.572946
0.572954
0.572961
0.572968
0.572968
0.572975
0.572982
0.572989
0.572996
0.572996
0.573003
0.57301
0.573018
0.573025
0.573025
0.573032
0.573039
0.573046
0.573053
0.573053
0.573061
0.573068
0.573075
0.573082
0.573082
0.573089
0.573097
0.573104
0.573111
0.573111
0.573118
0.573126
0.573133
0.57314
0.57314
0.573147
0.573155
0.573162
0.573169
0.573169
0.573177
0.573184
0.573191
0.573199
0.573199
0.573206
0.573213
0.573221
0.573228
0.573228
0.573235
0.573243
0.57325
0.573258
0.573258
0.573265
0.573273
0.57328
0.573288
0.573288
0.573295
0.573303
0.57331
0.573318
0.573318
0.573325
0.573333
0.57334
0.573348
0.573348
0.573356
0.573363
0.573371
0.573378
0.573378
0.573386
0.573393
0.573401
0.573409
0.573409
0.573416
0.573424
0.573432
0.573439
0.573439
0.573447
0.573455
0.573462
0.57347
0.57347
0.573478
0.573485
0.573493
0.573501
0.573501
0.573509
0.573516
0.573524
0.573532
0.573532
0.57354
0.573547
0.573555
0.573563
0.573563
0.573571
0.573579
0.573587
0.573594
0.573594
0.573602
0.57361
0.573618
0.573626
0.573626
0.573634
0.573642
0.57365
0.573658
0.573658
0.573665
0.573673
0.573681
0.573689
0.573689
0.573697
0.573705
0.573713
0.573721
0.573721
0.573729
0.573737
0.573745
0.573753
0.573753
0.573761
0.573769
0.573777
0.573785
0.573785
0.573793
0.573801
0.573809
0.573818
0.573818
0.573826
0.573834
0.573842
0.57385
0.57385
0.573859
0.573867
0.573875
0.573883
0.573883
0.573891
0.5739
0.573908
0.573916
0.573916
0.573925
0.573933
0.573941
0.573949
0.573949
0.573958
0.573966
0.573974
0.573983
0.573983
0.573991
0.573999
0.574008
0.574016
0.574016
0.574024
0.574033
0.574041
0.57405
0.57405
0.574058
0.574067
0.574075
0.574083
0.574083
0.574092
0.5741
0.574109
0.574117
0.574117
0.574126
0.574134
0.574143
0.574151
0.574151
0.57416
0.574168
0.574177
0.574186
0.574186
0.574194
0.574203
0.574211
0.57422
0.57422
0.574229
0.574237
0.574246
0.574255
0.574255
0.574263
0.574272
0.574281
0.574289
0.574289
0.574298
0.574307
0.574316
0.574324
0.574324
0.574333
0.574342
0.57435
0.574359
0.574359
0.574368
0.574377
0.574386
0.574394
0.574394
0.574403
0.574412
0.574421
0.57443
0.57443
0.574439
0.574448
0.574457
0.574466
0.574466
0.574475
0.574484
0.574493
0.574502
0.574502
0.574511
0.57452
0.574529
0.574538
0.574538
0.574547
0.574556
0.574565
0.574574
0.574574
0.574583
0.574592
0.574601
0.57461
0.57461
0.574619
0.574629
0.574638
0.574647
0.574647
0.574656
0.574665
0.574674
0.574684
0.574684
0.574693
0.574702
0.574711
0.574721
0.574721
0.57473
0.574739
0.574748
0.574758
0.574758
0.574767
0.574776
0.574786
0.574795
0.574795
0.574804
0.574814
0.574823
0.574832
0.574832
0.574842
0.574851
0.574861
0.57487
0.57487
0.57488
0.574889
0.574899
0.574908
0.574908
0.574917
0.574927
0.574936
0.574946
0.574946
0.574956
0.574965
0.574975
0.574984
0.574984
0.574994
0.575003
0.575013
0.575022
0.575022
0.575032
0.575042
0.575051
0.575061
0.575061
0.575071
0.57508
0.57509
0.5751
0.5751
0.57511
0.575119
0.575129
0.575139
0.575139
0.575149
0.575159
0.575169
0.575178
0.575178
0.575188
0.575198
0.575208
0.575218
0.575218
0.575228
0.575238
0.575248
0.575258
0.575258
0.575268
0.575278
0.575288
0.575298
0.575298
0.575308
0.575318
0.575328
0.575338
0.575338
0.575348
0.575358
0.575368
0.575378
0.575378
0.575388
0.575398
0.575408
0.575418
0.575418
0.575429
0.575439
0.575449
0.575459
0.575459
0.575469
0.575479
0.57549
0.5755
0.5755
0.57551
0.57552
0.575531
0.575541
0.575541
0.575551
0.575562
0.575572
0.575582
0.575582
0.575593
0.575603
0.575613
0.575624
0.575624
0.575634
0.575645
0.575655
0.575665
0.575665
0.575676
0.575686
0.575697
0.575707
0.575707
0.575718
0.575728
0.575739
0.575749
0.575749
0.57576
0.57577
0.575781
0.575792
0.575792
0.575802
0.575813
0.575824
0.575834
0.575834
0.575845
0.575856
0.575867
0.575877
0.575877
0.575888
0.575899
0.57591
0.575921
0.575921
0.575931
0.575942
0.575953
0.575964
0.575964
0.575975
0.575986
0.575997
0.576007
0.576007
0.576018
0.576029
0.57604
0.576051
0.576051
0.576062
0.576073
0.576084
0.576095
0.576095
0.576106
0.576117
0.576128
0.576139
0.576139
0.57615
0.576161
0.576173
0.576184
0.576184
0.576195
0.576206
0.576217
0.576228
0.576228
0.57624
0.576251
0.576262
0.576273
0.576273
0.576284
0.576296
0.576307
0.576318
0.576318
0.57633
0.576341
0.576352
0.576363
0.576363
0.576375
0.576386
0.576397
0.576409
0.576409
0.57642
0.576432
0.576443
0.576454
0.576454
0.576466
0.576477
0.576489
0.5765
0.5765
0.576512
0.576524
0.576535
0.576547
0.576547
0.576559
0.57657
0.576582
0.576594
0.576594
0.576605
0.576617
0.576629
0.576641
0.576641
0.576652
0.576664
0.576676
0.576688
0.576688
0.5767
0.576711
0.576723
0.576735
0.576735
0.576747
0.576759
0.576771
0.576783
0.576783
0.576795
0.576806
0.576818
0.57683
0.57683
0.576842
0.576854
0.576866
0.576878
0.576878
0.57689
0.576903
0.576915
0.576927
0.576927
0.576939
0.576951
0.576963
0.576975
0.576975
0.576987
0.577
0.577012
0.577024
0.577024
0.577036
0.577048
0.577061
0.577073
0.577073
0.577085
0.577098
0.57711
0.577122
0.577122
0.577135
0.577147
0.577159
0.577172
0.577172
0.577184
0.577196
0.577209
0.577221
0.577221
0.577234
0.577246
0.577259
0.577271
0.577271
0.577284
0.577296
0.577309
0.577322
0.577322
0.577334
0.577347