<?xml version="1.0"?>
<VTKFile type="UnstructuredGrid" version="0.1" byte_order="LittleEndian">
<UnstructuredGrid>
<Piece NumberOfPoints="5000" NumberOfCells="4000">
<PointData Scalars="Reaction 0">
<DataArray type="Float32" Name="Reaction 0" format="ascii">
0.121396
0.121396
0.121396
0.121396
0.121396
0.121396
0.121396
0.121396
0.121397
0.121397
0.121397
0.121397
0.121397
0.121397
0.121398
0.121398
0.121398
0.121398
0.121399
0.121399
0.121399
0.121399
0.1214
0.1214
0.121401
0.121401
0.121401
0.121402
0.121402
0.121403
0.121403
0.121404
0.121404
0.121405
0.121405
0.121405
0.121406
0.121407
0.121408
0.121408
0.121408
0.121409
0.12141
0.121411
0.121412
0.121412
0.121413
0.121414
0.121414
0.121415
0.121415
0.121416
0.121417
0.121418
0.12142
0.12142
0.121421
0.121422
0.121423
0.121424
0.121424
0.121425
0.121426
0.121428
0.121429
0.121429
0.12143
0.121431
0.121433
0.121434
0.121434
0.121436
0.121437
0.121438
0.12144
0.12144
0.121441
0.121443
0.121444
0.121446
0.121446
0.121447
0.121449
0.121451
0.121452
0.121452
0.121454
0.121456
0.121457
0.121459
0.121459
0.121461
0.121463
0.121464
0.121466
0.121466
0.121468
0.12147
0.121472
0.121474
0.121474
0.121476
0.121478
0.12148
0.121482
0.121482
0.121484
0.121486
0.121488
0.12149
0.12149
0.121492
0.121495
0.121497
0.121499
0.121499
0.121501
0.121504
0.121506
0.121508
0.121508
0.121511
0.121513
0.121515
0.121518
0.121518
0.12152
0.121523
0.121525
0.121528
0.121528
0.12153
0.121533
0.121535
0.121538
0.121538
0.121541
0.121543
0.121546
0.121549
0.121549
0.121552
0.121554
0.121557
0.12156
0.12156
0.121563
0.121566
0.121569
0.121571
0.121571
0.121574
0.121577
0.12158
0.121583
0.121583
0.121586
0.121589
0.121593
0.121596
0.121596
0.121599
0.121602
0.121605
0.121608
0.121608
0.121612
0.121615
0.121618
0.121621
0.121621
0.121625
0.121628
0.121632
0.121635
0.121635
0.121638
0.121642
0.121645
0.121649
0.121649
0.121652
0.121656
0.121659
0.121663
0.121663
0.121667
0.12167
0.121674
0.121678
0.121678
0.121681
0.121685
0.121689
0.121693
0.121693
0.121697
0.1217
0.121704
0.121708
0.121708
0.121712
0.121716
0.12172
0.121724
0.121724
0.121728
0.121732
0.121736
0.12174
0.12174
0.121744
0.121748
0.121753
0.121757
0.121757
0.121761
0.121765
0.121769
0.121774
0.121774
0.121778
0.121782
0.121787
0.121791
0.121791
0.121796
0.1218
0.121804
0.121809
0.121809
0.121813
0.121818
0.121823
0.121827
0.121827
0.121832
0.121836
0.121841
0.121846
0.121846
0.12185
0.121855
0.12186
0.121865
0.121865
0.121869
0.121874
0.121879
0.121884
0.121884
0.121889
0.121894
0.121899
0.121904
0.121904
0.121909
0.121914
0.121919
0.121924
0.121924
0.121929
0.121934
0.121939
0.121944
0.121944
0.12195
0.121955
0.12196
0.121965
0.121965
0.121971
0.121976
0.121981
0.121987
0.121987
0.121992
0.121997
0.122003
0.122008
0.122008
0.122014
0.122019
0.122025
0.122031
0.122031
0.122036
0.122042
0.122047
0.122053
0.122053
0.122059
0.122064
0.12207
0.122076
0.122076
0.122082
0.122088
0.122093
0.122099
0.122099
0.122105
0.122111
0.122117
0.122123
0.122123
0.122129
0.122135
0.122141
0.122147
0.122147
0.122153
0.122159
0.122165
0.122171
0.122171
0.122178
0.122184
0.12219
0.122196
0.122196
0.122203
0.122209
0.122215
0.122222
0.122222
0.122228
0.122234
0.122241
0.122247
0.122247
0.122254
0.12226
0.122267
0.122273
0.122273
0.12228
0.122286
0.122293
0.1223
0.1223
0.122306
0.122313
0.12232
0.122327
0.122327
0.122333
0.12234
0.122347
0.122354
0.122354
0.122361
0.122368
0.122375
0.122382
0.122382
0.122388
0.122395
0.122403
0.12241
0.12241
0.122417
0.122424
0.122431
0.122438
0.122438
0.122445
0.122452
0.12246
0.122467
0.122467
0.122474
0.122481
0.122489
0.122496
0.122496
0.122503
0.122511
0.122518
0.122526
0.122526
0.122533
0.122541
0.122548
0.122556
0.122556
0.122563
0.122571
0.122578
0.122586
0.122586
0.122594
0.122602
0.122609
0.122617
0.122617
0.122625
0.122633
0.12264
0.122648
0.122648
0.122656
0.122664
0.122672
0.12268
0.12268
0.122688
0.122696
0.122704
0.122712
0.122712
0.12272
0.122728
0.122736
0.122744
0.122744
0.122752
0.122761
0.122769
0.122777
0.122777
0.122785
0.122794
0.122802
0.12281
0.12281
0.122819
0.122827
0.122835
0.122844
0.122844
0.122852
0.122861
0.122869
0.122878
0.122878
0.122886
0.122895
0.122904
0.122912
0.122912
0.122921
0.12293
0.122938
0.122947
0.122947
0.122956
0.122965
0.122974
0.122982
0.122982
0.122991
0.123
0.123009
0.123018
0.123018
0.123027
0.123036
0.123045
0.123054
0.123054
0.123063
0.123072
0.123081
0.12309
0.12309
0.1231
0.123109
0.123118
0.123127
0.123127
0.123136
0.123146
0.123155
0.123164
0.123164
0.123174
0.123183
0.123193
0.123202
0.123202
0.123212
0.123221
0.123231
0.12324
0.12324
0.12325
0.123259
0.123269
0.123279
0.123279
0.123288
0.123298
0.123308
0.123317
0.123317
0.123327
0.123337
0.123347
0.123357
0.123357
0.123366
0.123376
0.123386
0.123396
0.123396
0.123406
0.123416
0.123426
0.123436
0.123436
0.123446
0.123456
0.123467
0.123477
0.123477
0.123487
0.123497
0.123507
0.123518
0.123518
0.123528
0.123538
0.123548
0.123559
0.123559
0.123569
0.12358
0.12359
0.1236
0.1236
0.123611
0.123621
0.123632
0.123643
0.123643
0.123653
0.123664
0.123674
0.123685
0.123685
0.123696
0.123706
0.123717
0.123728
0.123728
0.123739
0.123749
0.12376
0.123771
0.123771
0.123782
0.123793
0.123804
0.123815
0.123815
0.123826
0.123837
0.123848
0.123859
0.123859
0.12387
0.123881
0.123892
0.123903
0.123903
0.123915
0.123926
0.123937
0.123948
0.123948
0.12396
0.123971
0.123982
0.123994
0.123994
0.124005
0.124016
0.124028
0.124039
0.124039
0.124051
0.124062
0.124074
0.124085
0.124085
0.124097
0.124109
0.12412
0.124132
0.124132
0.124144
0.124155
0.124167
0.124179
0.124179
0.124191
0.124203
0.124214
0.124226
0.124226
0.124238
0.12425
0.124262
0.124274
0.124274
0.124286
0.124298
0.12431
0.124322
0.124322
0.124334
0.124346
0.124359
0.124371
0.124371
0.124383
0.124395
0.124407
0.12442
0.12442
0.124432
0.124444
0.124457
0.124469
0.124469
0.124482
0.124494
0.124506
0.124519
0.124519
0.124531
0.124544
0.124557
0.124569
0.124569
0.124582
0.124594
0.124607
0.12462
0.12462
0.124633
0.124645
0.124658
0.124671
0.124671
0.124684
0.124697
0.124709
0.124722
0.124722
0.124735
0.124748
0.124761
0.124774
0.124774
0.124787
0.1248
0.124813
0.124826
0.124826
0.12484
0.124853
0.124866
0.124879
0.124879
0.124892
0.124906
0.124919
0.124932
0.124932
0.124946
0.124959
0.124972
0.124986
0.124986
0.124999
0.125013
0.125026
0.12504
0.12504
0.125053
0.125067
0.12508
0.125094
0.125094
0.125108
0.125121
0.125135
0.125149
0.125149
0.125163
0.125176
0.12519
0.125204
0.125204
0.125218
0.125232
0.125246
0.12526
0.12526
0.125274
0.125288
0.125302
0.125316
0.125316
0.12533
0.125344
0.125358
0.125372
0.125372
0.125386
0.1254
0.125415
0.125429
0.125429
0.125443
0.125457
0.125472
0.125486
0.125486
0.1255
0.125515
0.125529
0.125544
0.125544
0.125558
0.125573
0.125587
0.125602
0.125602
0.125616
0.125631
0.125646
0.12566
0.12566
0.125675
0.12569
0.125705
0.125719
0.125719
0.125734
0.125749
0.125764
0.125779
0.125779
0.125794
0.125808
0.125823
0.125838
0.125838
0.125853
0.125868
0.125883
0.125899
0.125899
0.125914
0.125929
0.125944
0.125959
0.125959
0.125974
0.12599
0.126005
0.12602
0.12602
0.126036
0.126051
0.126066
0.126082
0.126082
0.126097
0.126113
0.126128
0.126143
0.126143
0.126159
0.126175
0.12619
0.126206
0.126206
0.126221
0.126237
0.126253
0.126268
0.126268
0.126284
0.1263
0.126316
0.126332
0.126332
0.126347
0.126363
0.126379
0.126395
0.126395
0.126411
0.126427
0.126443
0.126459
0.126459
0.126475
0.126491
0.126507
0.126524
0.126524
0.12654
0.126556
0.126572
0.126588
0.126588
0.126605
0.126621
0.126637
0.126654
0.126654
0.12667
0.126686
0.126703
0.126719
0.126719
0.126736
0.126752
0.126769
0.126785
0.126785
0.126802
0.126819
0.126835
0.126852
0.126852
0.126869
0.126885
0.126902
0.126919
0.126919
0.126936
0.126952
0.126969
0.126986
0.126986
0.127003
0.12702
0.127037
0.127054
0.127054
0.127071
0.127088
0.127105
0.127122
0.127122
0.127139
0.127157
0.127174
0.127191
0.127191
0.127208
0.127225
0.127243
0.12726
0.12726
0.127277
0.127295
0.127312
0.127329
0.127329
0.127347
0.127364
0.127382
0.127399
0.127399
0.127417
0.127435
0.127452
0.12747
0.12747
0.127487
0.127505
0.127523
0.127541
0.127541
0.127558
0.127576
0.127594
0.127612
0.127612
0.12763
0.127648
0.127666
0.127683
0.127683
0.127701
0.127719
0.127737
0.127756
0.127756
0.127774
0.127792
0.12781
0.127828
0.127828
0.127846
0.127864
0.127883
0.127901
0.127901
0.127919
0.127938
0.127956
0.127974
0.127974
0.127993
0.128011
0.12803
0.128048
0.128048
0.128067
0.128085
0.128104
0.128122
0.128122
0.128141
0.12816
0.128178
0.128197
0.128197
0.128216
0.128235
0.128253
0.128272
0.128272
0.128291
0.12831
0.128329
0.128348
0.128348
0.128367
0.128386
0.128405
0.128424
0.128424
0.128443
0.128462
0.128481
0.1285
0.1285
0.128519
0.128539
0.128558
0.128577
0.128577
0.128596
0.128616
0.128635
0.128654
0.128654
0.128674
0.128693
0.128713
0.128732
0.128732
0.128752
0.128771
0.128791
0.12881
0.12881
0.12883
0.12885
0.128869
0.128889
0.128889
0.128909
0.128928
0.128948
0.128968
0.128968
0.128988
0.129008
0.129028
0.129047
0.129047
0.129067
0.129087
0.129107
0.129127
0.129127
0.129147
0.129168
0.129188
0.129208
0.129208
0.129228
0.129248
0.129268
0.129289
0.129289
0.129309
0.129329
0.129349
0.12937
0.12937
0.12939
0.129411
0.129431
0.129451
0.129451
0.129472
0.129492
0.129513
0.129534
0.129534
0.129554
0.129575
0.129595
0.129616
0.129616
0.129637
0.129658
0.129678
0.129699
0.129699
0.12972
0.129741
0.129762
0.129783
0.129783
0.129804
0.129825
0.129846
0.129867
0.129867
0.129888
0.129909
0.12993
0.129951
0.129951
0.129972
0.129993
0.130014
0.130036
0.130036
0.130057
0.130078
0.1301
0.130121
0.130121
0.130142
0.130164
0.130185
0.130207
0.130207
0.130228
0.13025
0.130271
0.130293
0.130293
0.130314
0.130336
0.130358
0.130379
0.130379
0.130401
0.130423
0.130445
0.130466
0.130466
0.130488
0.13051
0.130532
0.130554
0.130554
0.130576
0.130598
0.13062
0.130642
0.130642
0.130664
0.130686
0.130708
0.13073
0.13073
0.130752
0.130774
0.130797
0.130819
0.130819
0.130841
0.130863
0.130886
0.130908
0.130908
0.130931
0.130953
0.130975
0.130998
0.130998
0.13102
0.131043
0.131065
0.131088
0.131088
0.131111
0.131133
0.131156
0.131179
0.131179
0.131201
0.131224
0.131247
0.13127
0.13127
0.131293
0.131315
0.131338
0.131361
0.131361
0.131384
0.131407
0.13143
0.131453
0.131453
0.131476
0.131499
0.131523
0.131546
0.131546
0.131569
0.131592
0.131615
0.131639
0.131639
0.131662
0.131685
0.131709
0.131732
0.131732
0.131755
0.131779
0.131802
0.131826
0.131826
0.131849
0.131873
0.131896
0.13192
0.13192
0.131944
0.131967
0.131991
0.132015
0.132015
0.132038
0.132062
0.132086
0.13211
0.13211
0.132134
0.132158
0.132182
0.132205
0.132205
0.132229
0.132253
0.132277
0.132302
0.132302
0.132326
0.13235
0.132374
0.132398
0.132398
0.132422
0.132447
0.132471
0.132495
0.132495
0.132519
0.132544
0.132568
0.132593
0.132593
0.132617
0.132641
0.132666
0.13269
0.13269
0.132715
0.13274
0.132764
0.132789
0.132789
0.132814
0.132838
0.132863
0.132888
0.132888
0.132912
0.132937
0.132962
0.132987
0.132987
0.133012
0.133037
0.133062
0.133087
0.133087
0.133112
0.133137
0.133162
0.133187
0.133187
0.133212
0.133237
0.133262
0.133288
0.133288
0.133313
0.133338
0.133363
0.133389
0.133389
0.133414
0.13344
0.133465
0.13349
0.13349
0.133516
0.133541
0.133567
0.133593
0.133593
0.133618
0.133644
0.133669
0.133695
0.133695
0.133721
0.133747
0.133772
0.133798
0.133798
0.133824
0.13385
0.133876
0.133902
0.133902
0.133928
0.133954
0.13398
0.134006
0.134006
0.134032
0.134058
0.134084
0.13411
0.13411
0.134136
0.134162
0.134189
0.134215
0.134215
0.134241
0.134267
0.134294
0.13432
0.13432
0.134347
0.134373
0.1344
0.134426
0.134426
0.134453
0.134479
0.134506
0.134532
0.134532
0.134559
0.134586
0.134612
0.134639
0.134639
0.134666
0.134693
0.13472
0.134746
0.134746
0.134773
0.1348
0.134827
0.134854
0.134854
0.134881
0.134908
0.134935
0.134962
0.134962
0.134989
0.135017
0.135044
0.135071
0.135071
0.135098
0.135125
0.135153
0.13518
0.13518
0.135207
0.135235
0.135262
0.13529
0.13529
0.135317
0.135345
0.135372
0.1354
0.1354
0.135427
0.135455
0.135483
0.13551
0.13551
0.135538
0.135566
0.135594
0.135621
0.135621
0.135649
0.135677
0.135705
0.135733
0.135733
0.135761
0.135789
0.135817
0.135845
0.135845
0.135873
0.135901
0.135929
0.135957
0.135957
0.135986
0.136014
0.136042
0.13607
0.13607
0.136099
0.136127
0.136155
0.136184
0.136184
0.136212
0.136241
0.136269
0.136298
0.136298
0.136326
0.136355
0.136383
0.136412
0.136412
0.136441
0.136469
0.136498
0.136527
0.136527
0.136556
0.136585
0.136613
0.136642
0.136642
0.136671
0.1367
0.136729
0.136758
0.136758
0.136787
0.136816
0.136845
0.136875
0.136875
0.136904
0.136933
0.136962
0.136991
0.136991
0.137021
0.13705
0.137079
0.137109
0.137109
0.137138
0.137167
0.137197
0.137226
0.137226
0.137256
0.137285
0.137315
0.137345
0.137345
0.137374
0.137404
0.137434
0.137463
0.137463
0.137493
0.137523
0.137553
0.137583
0.137583
0.137613
0.137642
0.137672
0.137702
0.137702
0.137732
0.137762
0.137792
0.137823
0.137823
0.137853
0.137883
0.137913
0.137943
0.137943
0.137974
0.138004
0.138034
0.138064
0.138064
0.138095
0.138125
0.138156
0.138186
0.138186
0.138217
0.138247
0.138278
0.138308
0.138308
0.138339
0.13837
0.1384
0.138431
0.138431
0.138462
0.138493
0.138523
0.138554
0.138554
0.138585
0.138616
0.138647
0.138678
0.138678
0.138709
0.13874
0.138771
0.138802
0.138802
0.138833
0.138864
0.138895
0.138927
0.138927
0.138958
0.138989
0.13902
0.139052
0.139052
0.139083
0.139115
0.139146
0.139177
0.139177
0.139209
0.13924
0.139272
0.139304
0.139304
0.139335
0.139367
0.139398
0.13943
0.13943
0.139462
0.139494
0.139525
0.139557
0.139557
0.139589
0.139621
0.139653
0.139685
0.139685
0.139717
0.139749
0.139781
0.139813
0.139813
0.139845
0.139877
0.139909
0.139942
0.139942
0.139974
0.140006
0.140038
0.140071
0.140071
0.140103
0.140136
0.140168
0.1402
0.1402
0.140233
0.140265
0.140298
0.140331
0.140331
0.140363
0.140396
0.140428
0.140461
0.140461
0.140494
0.140527
0.140559
0.140592
0.140592
0.140625
0.140658
0.140691
0.140724
0.140724
0.140757
0.14079
0.140823
0.140856
0.140856
0.140889
0.140922
0.140955
0.140989
0.140989
0.141022
0.141055
0.141088
0.141122
0.141122
0.141155
0.141189
0.141222
0.141255
0.141255
0.141289
0.141322
0.141356
0.14139
0.14139
0.141423
0.141457
0.141491
0.141524
0.141524
0.141558
0.141592
0.141626
0.141659
0.141659
0.141693
0.141727
0.141761
0.141795
0.141795
0.141829
0.141863
0.141897
0.141931
0.141931
0.141965
0.142
0.142034
0.142068
0.142068
0.142102
0.142137
0.142171
0.142205
0.142205
0.14224
0.142274
0.142309
0.142343
0.142343
0.142378
0.142412
0.142447
0.142481
0.142481
0.142516
0.142551
0.142585
0.14262
0.14262
0.142655
0.14269
0.142724
0.142759
0.142759
0.142794
0.142829
0.142864
0.142899
0.142899
0.142934
0.142969
0.143004
0.143039
0.143039
0.143074
0.14311
0.143145
0.14318
0.14318
0.143215
0.143251
0.143286
0.143321
0.143321
0.143357
0.143392
0.143428
0.143463
0.143463
0.143499
0.143534
0.14357
0.143606
0.143606
0.143641
0.143677
0.143713
0.143749
0.143749
0.143784
0.14382
0.143856
0.143892
0.143892
0.143928
0.143964
0.144
0.144036
0.144036
0.144072
0.144108
0.144144
0.14418
0.14418
0.144216
0.144253
0.144289
0.144325
0.144325
0.144362
0.144398
0.144434
0.144471
0.144471
0.144507
0.144544
0.14458
0.144617
0.144617
0.144653
0.14469
0.144727
0.144763
0.144763
0.1448
0.144837
0.144874
0.14491
0.14491
0.144947
0.144984
0.145021
0.145058
0.145058
0.145095
0.145132
0.145169
0.145206
0.145206
0.145243
0.14528
0.145317
0.145355
0.145355
0.145392
0.145429
0.145466
0.145504
0.145504
0.145541
0.145579
0.145616
0.145653
0.145653
0.145691
0.145729
0.145766
0.145804
0.145804
0.145841
0.145879
0.145917
0.145954
0.145954
0.145992
0.14603
0.146068
0.146106
0.146106
0.146144
0.146182
0.14622
0.146258
0.146258
0.146296
0.146334
0.146372
0.14641
0.14641
0.146448
0.146486
0.146524
0.146563
0.146563
0.146601
0.146639
0.146678
0.146716
0.146716
0.146755
0.146793
0.146832
0.14687
0.14687
0.146909
0.146947
0.146986
0.147025
0.147025
0.147063
0.147102
0.147141
0.147179
0.147179
0.147218
0.147257
0.147296
0.147335
0.147335
0.147374
0.147413
0.147452
0.147491
0.147491
0.14753
0.147569
0.147609
0.147648
0.147648
0.147687
0.147726
0.147766
0.147805
0.147805
0.147844
0.147884
0.147923
0.147963
0.147963
0.148002
0.148042
0.148081
0.148121
0.148121
0.14816
0.1482
0.14824
0.14828
0.14828
0.148319
0.148359
0.148399
0.148439
0.148439
0.148479
0.148519
0.148559
0.148599
0.148599
0.148639
0.148679
0.148719
0.148759
0.148759
0.148799
0.148839
0.14888
0.14892
0.14892
0.14896
0.149001
0.149041
0.149081
0.149081
0.149122
0.149162
0.149203
0.149243
0.149243
0.149284
0.149325
0.149365
0.149406
0.149406
0.149447
0.149487
0.149528
0.149569
0.149569
0.14961
0.149651
0.149692
0.149733
0.149733
0.149774
0.149815
0.149856
0.149897
0.149897
0.149938
0.149979
0.15002
0.150062
0.150062
0.150103
0.150144
0.150186
0.150227
0.150227
0.150268
0.15031
0.150351
0.150393
0.150393
0.150434
0.150476
0.150518
0.150559
0.150559
0.150601
0.150643
0.150684
0.150726
0.150726
0.150768
0.15081
0.150852
0.150894
0.150894
0.150936
0.150978
0.15102
0.151062
0.151062
0.151104
0.151146
0.151188
0.15123
0.15123
0.151273
0.151315
0.151357
0.151399
0.151399
0.151442
0.151484
0.151527
0.151569
0.151569
0.151612
0.151654
0.151697
0.151739
0.151739
0.151782
0.151825
0.151867
0.15191
0.15191
0.151953
0.151996
0.152039
0.152082
0.152082
0.152125
0.152168
0.152211
0.152254
0.152254
0.152297
0.15234
0.152383
0.152426
0.152426
0.152469
0.152512
0.152556
0.152599
0.152599
0.152642
0.152686
0.152729
0.152773
0.152773
0.152816
0.15286
0.152903
0.152947
0.152947
0.15299
0.153034
0.153078
0.153122
0.153122
0.153165
0.153209
0.153253
0.153297
0.153297
0.153341
0.153385
0.153429
0.153473
0.153473
0.153517
0.153561
0.153605
0.153649
0.153649
0.153693
0.153738
0.153782
0.153826
0.153826
0.15387
0.153915
0.153959
0.154004
0.154004
0.154048
0.154093
0.154137
0.154182
0.154182
0.154226
0.154271
0.154316
0.15436
0.15436
0.154405
0.15445
0.154495
0.15454
0.15454
0.154585
0.154629
0.154674
0.154719
0.154719
0.154765
0.15481
0.154855
0.1549
0.1549
0.154945
0.15499
0.155035
0.155081
0.155081
0.155126
0.155171
0.155217
0.155262
0.155262
0.155308
0.155353
0.155399
0.155444
0.155444
0.15549
0.155536
0.155581
0.155627
0.155627
0.155673
0.155719
0.155764
0.15581
0.15581
0.155856
0.155902
0.155948
0.155994
0.155994
0.15604
0.156086
0.156132
0.156178
0.156178
0.156225
0.156271
0.156317
0.156363
0.156363
0.15641
0.156456
0.156502
0.156549
0.156549
0.156595
0.156642
0.156688
0.156735
0.156735
0.156782
0.156828
0.156875
0.156922
0.156922
0.156968
0.157015
0.157062
0.157109
0.157109
0.157156
0.157203
0.15725
0.157297
0.157297
0.157344
0.157391
0.157438
0.157485
0.157485
0.157532
0.15758
0.157627
0.157674
0.157674
0.157721
0.157769
0.157816
0.157864
0.157864
0.157911
0.157959
0.158006
0.158054
0.158054
0.158101
0.158149
0.158197
0.158245
0.158245
0.158292
0.15834
0.158388
0.158436
0.158436
0.158484
0.158532
0.15858
0.158628
0.158628
0.158676
0.158724
0.158772
0.15882
0.15882
0.158868
0.158917
0.158965
0.159013
0.159013
0.159062
0.15911
0.159158
0.159207
0.159207
0.159255
0.159304
0.159353
0.159401
0.159401
0.15945
0.159498
0.159547
0.159596
0.159596
0.159645
0.159694
0.159742
0.159791
0.159791
0.15984
0.159889
0.159938
0.159987
0.159987
0.160036
0.160086
0.160135
0.160184
0.160184
0.160233
0.160282
0.160332
0.160381
0.160381
0.160431
0.16048
0.160529
0.160579
0.160579
0.160628
0.160678
0.160728
0.160777
0.160777
0.160827
0.160877
0.160926
0.160976
0.160976
0.161026
0.161076
0.161126
0.161176
0.161176
0.161226
0.161276
0.161326
0.161376
0.161376
0.161426
0.161476
0.161526
0.161577
0.161577
0.161627
0.161677
0.161728
0.161778
0.161778
0.161828
0.161879
0.161929
0.16198
0.16198
0.16203
0.162081
0.162132
0.162182
0.162182
0.162233
0.162284
0.162335
0.162385
0.162385
0.162436
0.162487
0.162538
0.162589
0.162589
0.16264
0.162691
0.162742
0.162793
0.162793
0.162845
0.162896
0.162947
0.162998
0.162998
0.16305
0.163101
0.163152
0.163204
0.163204
0.163255
0.163307
0.163358
0.16341
0.16341
0.163462
0.163513
0.163565
0.163617
0.163617
0.163668
0.16372
0.163772
0.163824
0.163824
0.163876
0.163928
0.16398
0.164032
0.164032
0.164084
0.164136
0.164188
0.16424
0.16424
0.164293
0.164345
0.164397
0.164449
0.164449
0.164502
0.164554
0.164607
0.164659
0.164659
0.164712
0.164764
0.164817
0.16487
0.16487
0.164922
0.164975
0.165028
0.16508
0.16508
0.165133
0.165186
0.165239
0.165292
0.165292
0.165345
0.165398
0.165451
0.165504
0.165504
0.165557
0.16561
0.165664
0.165717
0.165717
0.16577
0.165824
0.165877
0.16593
0.16593
0.165984
0.166037
0.166091
0.166144
0.166144
0.166198
0.166252
0.166305
0.166359
0.166359
0.166413
0.166466
0.16652
0.166574
0.166574
0.166628
0.166682
0.166736
0.16679
0.16679
0.166844
0.166898
0.166952
0.167006
0.167006
0.167061
0.167115
0.167169
0.167223
0.167223
0.167278
0.167332
0.167387
0.167441
0.167441
0.167496
0.16755
0.167605
0.167659
0.167659
0.167714
0.167769
0.167823
0.167878
0.167878
0.167933
0.167988
0.168043
0.168098
0.168098
0.168153
0.168208
0.168263
0.168318
0.168318
0.168373
0.168428
0.168483
0.168539
0.168539
0.168594
0.168649
0.168705
0.16876
0.16876
0.168815
0.168871
0.168926
0.168982
0.168982
0.169038
0.169093
0.169149
0.169205
0.169205
0.16926
0.169316
0.169372
0.169428
0.169428
0.169484
0.16954
0.169596
0.169652
0.169652
0.169708
0.169764
0.16982
0.169876
0.169876
0.169932
0.169989
0.170045
0.170101
0.170101
0.170158
0.170214
0.17027
0.170327
0.170327
0.170383
0.17044
0.170497
0.170553
0.170553
0.17061
0.170667
0.170723
0.17078
0.17078
0.170837
0.170894
0.170951
0.171008
0.171008
0.171065
0.171122
0.171179
0.171236
0.171236
0.171293
0.17135
0.171408
0.171465
0.171465
0.171522
0.17158
0.171637
0.171694
0.171694
0.171752
0.171809
0.171867
0.171924
0.171924
0.171982
0.17204
0.172097
0.172155
0.172155
0.172213
0.172271
0.172329
0.172387
0.172387
0.172445
0.172502
0.172561
0.172619
0.172619
0.172677
0.172735
0.172793
0.172851
0.172851
0.172909
0.172968
0.173026
0.173084
0.173084
0.173143
0.173201
0.17326
0.173318
0.173318
0.173377
0.173436
0.173494
0.173553
0.173553
0.173612
0.17367
0.173729
0.173788
0.173788
0.173847
0.173906
0.173965
0.174024
0.174024
0.174083
0.174142
0.174201
0.17426
0.17426
0.17432
0.174379
0.174438
0.174497
0.174497
0.174557
0.174616
0.174676
0.174735
0.174735
0.174795
0.174854
0.174914
0.174974
0.174974
0.175033
0.175093
0.175153
0.175212
0.175212
0.175272
0.175332
0.175392
0.175452
0.175452
0.175512
0.175572
0.175632
0.175692
0.175692
0.175753
0.175813
0.175873
0.175933
0.175933
0.175994
0.176054
0.176114
0.176175
0.176175
0.176235
0.176296
0.176357
0.176417
0.176417
0.176478
0.176538
0.176599
0.17666
0.17666
0.176721
0.176782
0.176843
0.176903
0.176903
0.176964
0.177025
0.177087
0.177148
0.177148
0.177209
0.17727
0.177331
0.177392
0.177392
0.177454
0.177515
0.177576
0.177638
0.177638
0.177699
0.177761
0.177822
0.177884
0.177884
0.177946
0.178007
0.178069
0.178131
0.178131
0.178192
0.178254
0.178316
0.178378
0.178378
0.17844
0.178502
0.178564
0.178626
0.178626
0.178688
0.17875
0.178812
0.178875
0.178875
0.178937
0.178999
0.179062
0.179124
0.179124
0.179186
0.179249
0.179311
0.179374
0.179374
0.179437
0.179499
0.179562
0.179625
0.179625
0.179687
0.17975
0.179813
0.179876
0.179876
0.179939
0.180002
0.180065
0.180128
0.180128
0.180191
0.180254
0.180317
0.18038
0.18038
0.180444
0.180507
0.18057
0.180634
0.180634
0.180697
0.180761
0.180824
0.180888
0.180888
0.180951
0.181015
0.181079
0.181142
0.181142
0.181206
0.18127
0.181334
0.181397
0.181397
0.181461
0.181525
0.181589
0.181653
0.181653
0.181717
0.181782
0.181846
0.18191
0.18191
0.181974
0.182038
0.182103
0.182167
0.182167
0.182231
0.182296
0.18236
0.182425
0.182425
0.182489
0.182554
0.182619
0.182683
0.182683
0.182748
0.182813
0.182878
0.182943
0.182943
0.183008
0.183072
0.183137
0.183202
0.183202
0.183268
0.183333
0.183398
0.183463
0.183463
0.183528
0.183593
0.183659
0.183724
0.183724
0.18379
0.183855
0.18392
0.183986
0.183986
0.184052
0.184117
0.184183
0.184248
0.184248
0.184314
0.18438
0.184446
0.184512
0.184512
0.184578
0.184643
0.184709
0.184775
0.184775
0.184842
0.184908
0.184974
0.18504
0.18504
0.185106
0.185172
0.185239
0.185305
0.185305
0.185372
0.185438
0.185504
0.185571
0.185571
0.185638
0.185704
0.185771
0.185837
0.185837
0.185904
0.185971
0.186038
0.186105
0.186105
0.186172
0.186238
0.186305
0.186372
0.186372
0.18644
0.186507
0.186574
0.186641
0.186641
0.186708
0.186775
0.186843
0.18691
0.18691
0.186978
0.187045
0.187112
0.18718
0.18718
0.187248
0.187315
0.187383
0.187451
0.187451
0.187518
0.187586
0.187654
0.187722
0.187722
0.18779
0.187858
0.187926
0.187994
0.187994
0.188062
0.18813
0.188198
0.188266
0.188266
0.188334
0.188403
0.188471
0.188539
0.188539
0.188608
0.188676
0.188745
0.188813
0.188813
0.188882
0.188951
0.189019
0.189088
0.189088
0.189157
0.189225
0.189294
0.189363
0.189363
0.189432
0.189501
0.18957
0.189639
0.189639
0.189708
0.189777
0.189847
0.189916
0.189916
0.189985
0.190054
0.190124
0.190193
0.190193
0.190262
0.190332
0.190401
0.190471
0.190471
0.190541
0.19061
0.19068
0.19075
0.19075
0.190819
0.190889
0.190959
0.191029
0.191029
0.191099
0.191169
0.191239
0.191309
0.191309
0.191379
0.191449
0.19152
0.19159
0.19159
0.19166
0.19173
0.191801
0.191871
0.191871
0.191942
0.192012
0.192083
0.192153
0.192153
0.192224
0.192295
0.192365
0.192436
0.192436
0.192507
0.192578
0.192648
0.192719
0.192719
0.19279
0.192861
0.192932
0.193004
0.193004
0.193075
0.193146
0.193217
0.193288
0.193288
0.19336
0.193431
0.193502
0.193574
0.193574
0.193645
0.193717
0.193788
0.19386
0.19386
0.193932
0.194003
0.194075
0.194147
0.194147
0.194219
0.194291
0.194363
0.194435
0.194435
0.194507
0.194579
0.194651
0.194723
0.194723
0.194795
0.194867
0.194939
0.195012
0.195012
0.195084
0.195156
0.195229
0.195301
0.195301
0.195374
0.195446
0.195519
0.195592
0.195592
0.195664
0.195737
0.19581
0.195883
0.195883
0.195956
0.196029
0.196101
0.196174
0.196174
0.196248
0.196321
0.196394
0.196467
0.196467
0.19654
0.196613
0.196687
0.19676
0.19676
0.196833
0.196907
0.19698
0.197054
0.197054
0.197127
0.197201
0.197275
0.197348
0.197348
0.197422
0.197496
0.19757
0.197644
0.197644
0.197717
0.197791
0.197865
0.197939
0.197939
0.198014
0.198088
0.198162
0.198236
0.198236
0.19831
0.198385
0.198459
0.198533
0.198533
0.198608
0.198682
0.198757
0.198831
0.198831
0.198906
0.198981
0.199055
0.19913
0.19913
0.199205
0.19928
0.199354
0.199429
0.199429
0.199504
0.199579
0.199654
0.199729
0.199729
0.199805
0.19988
0.199955
0.20003
0.20003
0.200106
0.200181
0.200256
0.200332
0.200332
0.200407
0.200483
0.200558
0.200634
0.200634
0.20071
0.200785
0.200861
0.200937
0.200937
0.201013
0.201089
0.201165
0.20124
0.20124
0.201316
0.201393
0.201469
0.201545
0.201545
0.201621
0.201697
0.201773
0.20185
0.20185
0.201926
0.202003
0.202079
0.202156
0.202156
0.202232
0.202309
0.202385
0.202462
0.202462
0.202539
0.202615
0.202692
0.202769
0.202769
0.202846
0.202923
0.203
0.203077
0.203077
0.203154
0.203231
0.203308
0.203385
0.203385
0.203463
0.20354
0.203617
0.203695
0.203695
0.203772
0.20385
0.203927
0.204005
0.204005
0.204082
0.20416
0.204238
0.204315
0.204315
0.204393
0.204471
0.204549
0.204627
0.204627
0.204705
0.204783
0.204861
0.204939
0.204939
0.205017
0.205095
0.205173
0.205252
0.205252
0.20533
0.205408
0.205487
0.205565
0.205565
0.205644
0.205722
0.205801
0.205879
0.205879
0.205958
0.206037
0.206116
0.206194
0.206194
0.206273
0.206352
0.206431
0.20651
0.20651
0.206589
0.206668
0.206747
0.206826
0.206826
0.206906
0.206985
0.207064
0.207143
0.207143
0.207223
0.207302
0.207382
0.207461
0.207461
0.207541
0.20762
0.2077
0.20778
0.20778
0.20786
0.207939
0.208019
0.208099
0.208099
0.208179
0.208259
0.208339
0.208419
0.208419
0.208499
0.208579
0.208659
0.20874
0.20874
0.20882
0.2089
0.208981
0.209061
0.209061
0.209141
0.209222
0.209303
0.209383
0.209383
0.209464
0.209544
0.209625
0.209706
0.209706
0.209787
0.209868
0.209949
0.21003
0.21003
0.210111
0.210192
0.210273
0.210354
0.210354
0.210435
0.210516
0.210597
0.210679
0.210679
0.21076
0.210842
0.210923
0.211004
0.211004
0.211086
0.211168
0.211249
0.211331
0.211331
0.211413
0.211494
0.211576
0.211658
0.211658
0.21174
0.211822
0.211904
0.211986
0.211986
0.212068
0.21215
0.212232
0.212315
0.212315
0.212397
0.212479
0.212561
0.212644
0.212644
0.212726
0.212809
0.212891
0.212974
0.212974
0.213057
0.213139
0.213222
0.213305
0.213305
0.213387
0.21347
0.213553
0.213636
0.213636
0.213719
0.213802
0.213885
0.213968
0.213968
0.214052
0.214135
0.214218
0.214301
0.214301
0.214385
0.214468
0.214552
0.214635
0.214635
0.214719
0.214802
0.214886
0.214969
0.214969
0.215053
0.215137
0.215221
0.215305
0.215305
0.215388
0.215472
0.215556
0.21564
0.21564
0.215725
0.215809
0.215893
0.215977
0.215977
0.216061
0.216146
0.21623
0.216314
0.216314
0.216399
0.216483
0.216568
0.216652
0.216652
0.216737
0.216822
0.216906
0.216991
0.216991
0.217076
0.217161
0.217246
0.217331
0.217331
0.217416
0.217501
0.217586
0.217671
0.217671
0.217756
0.217841
0.217927
0.218012
0.218012
0.218097
0.218183
0.218268
0.218354
0.218354
0.218439
0.218525
0.21861
0.218696
0.218696
0.218782
0.218868
0.218953
0.219039
0.219039
0.219125
0.219211
0.219297
0.219383
0.219383
0.219469
0.219555
0.219642
0.219728
0.219728
0.219814
0.2199
0.219987
0.220073
0.220073
0.22016
0.220246
0.220333
0.220419
0.220419
0.220506
0.220593
0.220679
0.220766
0.220766
0.220853
0.22094
0.221027
0.221114
0.221114
0.221201
0.221288
0.221375
0.221462
0.221462
0.221549
0.221637
0.221724
0.221811
0.221811
0.221899
0.221986
0.222073
0.222161
0.222161
0.222249
0.222336
0.222424
0.222512
0.222512
0.222599
0.222687
0.222775
0.222863
0.222863
0.222951
0.223039
0.223127
0.223215
0.223215
0.223303
0.223391
0.223479
0.223568
0.223568
0.223656
0.223744
0.223833
0.223921
0.223921
0.22401
0.224098
0.224187
0.224275
0.224275
0.224364
0.224453
0.224542
0.22463
0.22463
0.224719
0.224808
0.224897
0.224986
0.224986
0.225075
0.225164
0.225253
0.225343
0.225343
0.225432
0.225521
0.22561
0.2257
0.2257
0.225789
0.225879
0.225968
0.226058
0.226058
0.226147
0.226237
0.226327
0.226416
0.226416
0.226506
0.226596
0.226686
0.226776
0.226776
0.226866
0.226956
0.227046
0.227136
0.227136
0.227226
0.227316
0.227407