<?xml version="1.0"?>
<VTKFile type="UnstructuredGrid" version="0.1" byte_order="LittleEndian">
<UnstructuredGrid>
<Piece NumberOfPoints="5000" NumberOfCells="4000">
<PointData Scalars="Reaction 0">
<DataArray type="Float32" Name="Reaction 0" format="ascii">
0.564523
0.564523
0.564523
0.564523
0.564523
0.564523
0.564523
0.564523
0.564523
0.564523
0.564523
0.564523
0.564523
0.564523
0.564523
0.564523
0.564523
0.564523
0.564523
0.564523
0.564523
0.564523
0.564523
0.564523
0.564523
0.564523
0.564523
0.564523
0.564523
0.564523
0.564523
0.564523
0.564523
0.564523
0.564523
0.564523
0.564523
0.564523
0.564523
0.564523
0.564523
0.564523
0.564523
0.564523
0.564523
0.564523
0.564523
0.564523
0.564523
0.564523
0.564523
0.564523
0.564523
0.564524
0.564524
0.564524
0.564524
0.564524
0.564524
0.564524
0.564524
0.564524
0.564524
0.564524
0.564524
0.564524
0.564524
0.564524
0.564524
0.564524
0.564524
0.564524
0.564524
0.564524
0.564524
0.564524
0.564524
0.564524
0.564524
0.564524
0.564524
0.564524
0.564524
0.564524
0.564524
0.564524
0.564524
0.564524
0.564524
0.564524
0.564524
0.564524
0.564524
0.564524
0.564524
0.564524
0.564524
0.564524
0.564524
0.564525
0.564525
0.564525
0.564525
0.564525
0.564525
0.564525
0.564525
0.564525
0.564525
0.564525
0.564525
0.564525
0.564525
0.564525
0.564525
0.564525
0.564525
0.564525
0.564525
0.564525
0.564525
0.564525
0.564525
0.564525
0.564525
0.564525
0.564525
0.564525
0.564525
0.564525
0.564525
0.564526
0.564526
0.564526
0.564526
0.564526
0.564526
0.564526
0.564526
0.564526
0.564526
0.564526
0.564526
0.564526
0.564526
0.564526
0.564526
0.564526
0.564526
0.564526
0.564526
0.564526
0.564526
0.564526
0.564527
0.564527
0.564527
0.564527
0.564527
0.564527
0.564527
0.564527
0.564527
0.564527
0.564527
0.564527
0.564527
0.564527
0.564527
0.564527
0.564527
0.564527
0.564527
0.564527
0.564527
0.564527
0.564527
0.564528
0.564528
0.564528
0.564528
0.564528
0.564528
0.564528
0.564528
0.564528
0.564528
0.564528
0.564528
0.564528
0.564528
0.564528
0.564528
0.564528
0.564528
0.564528
0.564529
0.564529
0.564529
0.564529
0.564529
0.564529
0.564529
0.564529
0.564529
0.564529
0.564529
0.564529
0.564529
0.564529
0.564529
0.564529
0.564529
0.56453
0.56453
0.56453
0.56453
0.56453
0.56453
0.56453
0.56453
0.56453
0.56453
0.56453
0.56453
0.56453
0.56453
0.56453
0.564531
0.564531
0.564531
0.564531
0.564531
0.564531
0.564531
0.564531
0.564531
0.564531
0.564531
0.564531
0.564531
0.564531
0.564531
0.564532
0.564532
0.564532
0.564532
0.564532
0.564532
0.564532
0.564532
0.564532
0.564532
0.564532
0.564532
0.564532
0.564532
0.564532
0.564533
0.564533
0.564533
0.564533
0.564533
0.564533
0.564533
0.564533
0.564533
0.564533
0.564533
0.564533
0.564533
0.564534
0.564534
0.564534
0.564534
0.564534
0.564534
0.564534
0.564534
0.564534
0.564534
0.564534
0.564534
0.564535
0.564535
0.564535
0.564535
0.564535
0.564535
0.564535
0.564535
0.564535
0.564535
0.564535
0.564535
0.564535
0.564536
0.564536
0.564536
0.564536
0.564536
0.564536
0.564536
0.564536
0.564536
0.564536
0.564536
0.564536
0.564537
0.564537
0.564537
0.564537
0.564537
0.564537
0.564537
0.564537
0.564537
0.564537
0.564537
0.564538
0.564538
0.564538
0.564538
0.564538
0.564538
0.564538
0.564538
0.564538
0.564538
0.564539
0.564539
0.564539
0.564539
0.564539
0.564539
0.564539
0.564539
0.564539
0.564539
0.564539
0.564539
0.56454
0.56454
0.56454
0.56454
0.56454
0.56454
0.56454
0.56454
0.56454
0.56454
0.564541
0.564541
0.564541
0.564541
0.564541
0.564541
0.564541
0.564541
0.564541
0.564541
0.564542
0.564542
0.564542
0.564542
0.564542
0.564542
0.564542
0.564542
0.564542
0.564542
0.564543
0.564543
0.564543
0.564543
0.564543
0.564543
0.564543
0.564543
0.564544
0.564544
0.564544
0.564544
0.564544
0.564544
0.564544
0.564544
0.564544
0.564545
0.564545
0.564545
0.564545
0.564545
0.564545
0.564545
0.564545
0.564545
0.564546
0.564546
0.564546
0.564546
0.564546
0.564546
0.564546
0.564546
0.564546
0.564547
0.564547
0.564547
0.564547
0.564547
0.564547
0.564547
0.564547
0.564548
0.564548
0.564548
0.564548
0.564548
0.564548
0.564548
0.564548
0.564548
0.564549
0.564549
0.564549
0.564549
0.564549
0.564549
0.564549
0.564549
0.56455
0.56455
0.56455
0.56455
0.56455
0.56455
0.56455
0.56455
0.564551
0.564551
0.564551
0.564551
0.564551
0.564551
0.564551
0.564551
0.564552
0.564552
0.564552
0.564552
0.564552
0.564552
0.564552
0.564553
0.564553
0.564553
0.564553
0.564553
0.564553
0.564553
0.564553
0.564553
0.564554
0.564554
0.564554
0.564554
0.564554
0.564554
0.564554
0.564554
0.564555
0.564555
0.564555
0.564555
0.564555
0.564555
0.564556
0.564556
0.564556
0.564556
0.564556
0.564556
0.564556
0.564557
0.564557
0.564557
0.564557
0.564557
0.564557
0.564557
0.564557
0.564558
0.564558
0.564558
0.564558
0.564558
0.564558
0.564558
0.564559
0.564559
0.564559
0.564559
0.564559
0.564559
0.564559
0.56456
0.56456
0.56456
0.56456
0.56456
0.56456
0.56456
0.564561
0.564561
0.564561
0.564561
0.564561
0.564561
0.564562
0.564562
0.564562
0.564562
0.564562
0.564562
0.564562
0.564563
0.564563
0.564563
0.564563
0.564563
0.564563
0.564563
0.564564
0.564564
0.564564
0.564564
0.564564
0.564564
0.564565
0.564565
0.564565
0.564565
0.564565
0.564565
0.564565
0.564566
0.564566
0.564566
0.564566
0.564566
0.564566
0.564567
0.564567
0.564567
0.564567
0.564567
0.564567
0.564568
0.564568
0.564568
0.564568
0.564568
0.564568
0.564569
0.564569
0.564569
0.564569
0.564569
0.564569
0.564569
0.56457
0.56457
0.56457
0.56457
0.56457
0.56457
0.564571
0.564571
0.564571
0.564571
0.564571
0.564571
0.564572
0.564572
0.564572
0.564572
0.564572
0.564573
0.564573
0.564573
0.564573
0.564573
0.564573
0.564574
0.564574
0.564574
0.564574
0.564574
0.564574
0.564574
0.564575
0.564575
0.564575
0.564575
0.564575
0.564576
0.564576
0.564576
0.564576
0.564576
0.564576
0.564577
0.564577
0.564577
0.564577
0.564577
0.564578
0.564578
0.564578
0.564578
0.564578
0.564578
0.564579
0.564579
0.564579
0.564579
0.564579
0.56458
0.56458
0.56458
0.56458
0.56458
0.56458
0.564581
0.564581
0.564581
0.564581
0.564581
0.564582
0.564582
0.564582
0.564582
0.564582
0.564583
0.564583
0.564583
0.564583
0.564583
0.564583
0.564583
0.564584
0.564584
0.564584
0.564584
0.564584
0.564585
0.564585
0.564585
0.564585
0.564585
0.564586
0.564586
0.564586
0.564586
0.564586
0.564587
0.564587
0.564587
0.564587
0.564587
0.564588
0.564588
0.564588
0.564588
0.564588
0.564589
0.564589
0.564589
0.564589
0.564589
0.56459
0.56459
0.56459
0.56459
0.56459
0.56459
0.564591
0.564591
0.564591
0.564591
0.564591
0.564592
0.564592
0.564592
0.564592
0.564593
0.564593
0.564593
0.564593
0.564593
0.564594
0.564594
0.564594
0.564594
0.564594
0.564595
0.564595
0.564595
0.564595
0.564595
0.564596
0.564596
0.564596
0.564596
0.564596
0.564597
0.564597
0.564597
0.564597
0.564597
0.564598
0.564598
0.564598
0.564598
0.564598
0.564599
0.564599
0.564599
0.564599
0.564599
0.5646
0.5646
0.5646
0.564601
0.564601
0.564601
0.564601
0.564601
0.564602
0.564602
0.564602
0.564602
0.564602
0.564603
0.564603
0.564603
0.564603
0.564604
0.564604
0.564604
0.564604
0.564604
0.564605
0.564605
0.564605
0.564605
0.564605
0.564606
0.564606
0.564606
0.564606
0.564607
0.564607
0.564607
0.564607
0.564607
0.564608
0.564608
0.564608
0.564608
0.564609
0.564609
0.564609
0.564609
0.564609
0.56461
0.56461
0.56461
0.564611
0.564611
0.564611
0.564611
0.564611
0.564612
0.564612
0.564612
0.564612
0.564612
0.564613
0.564613
0.564613
0.564613
0.564614
0.564614
0.564614
0.564614
0.564614
0.564615
0.564615
0.564615
0.564615
0.564616
0.564616
0.564616
0.564616
0.564617
0.564617
0.564617
0.564617
0.564617
0.564618
0.564618
0.564618
0.564619
0.564619
0.564619
0.564619
0.56462
0.56462
0.56462
0.56462
0.56462
0.564621
0.564621
0.564621
0.564621
0.564622
0.564622
0.564622
0.564622
0.564623
0.564623
0.564623
0.564624
0.564624
0.564624
0.564624
0.564624
0.564625
0.564625
0.564625
0.564625
0.564626
0.564626
0.564626
0.564626
0.564627
0.564627
0.564627
0.564627
0.564628
0.564628
0.564628
0.564628
0.564628
0.564629
0.564629
0.564629
0.56463
0.56463
0.56463
0.56463
0.564631
0.564631
0.564631
0.564631
0.564632
0.564632
0.564632
0.564632
0.564633
0.564633
0.564633
0.564634
0.564634
0.564634
0.564634
0.564635
0.564635
0.564635
0.564635
0.564636
0.564636
0.564636
0.564636
0.564637
0.564637
0.564637
0.564637
0.564637
0.564638
0.564638
0.564638
0.564639
0.564639
0.564639
0.564639
0.56464
0.56464
0.56464
0.56464
0.564641
0.564641
0.564641
0.564641
0.564642
0.564642
0.564642
0.564643
0.564643
0.564643
0.564643
0.564644
0.564644
0.564644
0.564645
0.564645
0.564645
0.564646
0.564646
0.564646
0.564646
0.564647
0.564647
0.564647
0.564647
0.564648
0.564648
0.564648
0.564648
0.564649
0.564649
0.564649
0.56465
0.56465
0.56465
0.56465
0.564651
0.564651
0.564651
0.564651
0.564652
0.564652
0.564652
0.564652
0.564653
0.564653
0.564653
0.564654
0.564654
0.564654
0.564655
0.564655
0.564655
0.564655
0.564656
0.564656
0.564656
0.564657
0.564657
0.564657
0.564657
0.564658
0.564658
0.564658
0.564658
0.564659
0.564659
0.56466
0.56466
0.56466
0.56466
0.564661
0.564661
0.564661
0.564661
0.564662
0.564662
0.564662
0.564662
0.564663
0.564663
0.564664
0.564664
0.564664
0.564664
0.564665
0.564665
0.564665
0.564665
0.564666
0.564666
0.564667
0.564667
0.564667
0.564667
0.564668
0.564668
0.564668
0.564668
0.564669
0.564669
0.56467
0.56467
0.56467
0.56467
0.564671
0.564671
0.564671
0.564671
0.564672
0.564672
0.564673
0.564673
0.564673
0.564673
0.564674
0.564674
0.564674
0.564674
0.564675
0.564675
0.564676
0.564676
0.564676
0.564676
0.564677
0.564677
0.564677
0.564677
0.564678
0.564678
0.564679
0.564679
0.564679
0.564679
0.56468
0.56468
0.564681
0.564681
0.564681
0.564681
0.564682
0.564682
0.564682
0.564683
0.564683
0.564683
0.564684
0.564684
0.564684
0.564685
0.564685
0.564685
0.564685
0.564686
0.564686
0.564686
0.564687
0.564687
0.564687
0.564688
0.564688
0.564688
0.564688
0.564689
0.564689
0.56469
0.56469
0.56469
0.56469
0.564691
0.564691
0.564692
0.564692
0.564692
0.564693
0.564693
0.564693
0.564693
0.564694
0.564694
0.564695
0.564695
0.564695
0.564695
0.564696
0.564696
0.564697
0.564697
0.564697
0.564697
0.564698
0.564698
0.564698
0.564699
0.564699
0.5647
0.5647
0.5647
0.5647
0.564701
0.564701
0.564702
0.564702
0.564702
0.564702
0.564703
0.564703
0.564703
0.564704
0.564704
0.564705
0.564705
0.564705
0.564705
0.564706
0.564706
0.564707
0.564707
0.564707
0.564708
0.564708
0.564708
0.564708
0.564709
0.564709
0.56471
0.56471
0.56471
0.564711
0.564711
0.564711
0.564712
0.564712
0.564712
0.564713
0.564713
0.564714
0.564714
0.564714
0.564714
0.564715
0.564715
0.564715
0.564716
0.564716
0.564717
0.564717
0.564717
0.564717
0.564718
0.564718
0.564719
0.564719
0.564719
0.56472
0.56472
0.564721
0.564721
0.564721
0.564721
0.564722
0.564722
0.564722
0.564723
0.564723
0.564724
0.564724
0.564724
0.564725
0.564725
0.564725
0.564726
0.564726
0.564726
0.564727
0.564727
0.564728
0.564728
0.564728
0.564729
0.564729
0.564729
0.564729
0.56473
0.56473
0.564731
0.564731
0.564731
0.564732
0.564732
0.564733
0.564733
0.564733
0.564734
0.564734
0.564735
0.564735
0.564735
0.564735
0.564736
0.564736
0.564737
0.564737
0.564737
0.564738
0.564738
0.564739
0.564739
0.564739
0.56474
0.56474
0.564741
0.564741
0.564741
0.564741
0.564742
0.564742
0.564742
0.564743
0.564743
0.564744
0.564744
0.564744
0.564745
0.564745
0.564746
0.564746
0.564746
0.564747
0.564747
0.564748
0.564748
0.564748
0.564749
0.564749
0.56475
0.56475
0.56475
0.56475
0.564751
0.564751
0.564752
0.564752
0.564752
0.564753
0.564753
0.564754
0.564754
0.564754
0.564755
0.564755
0.564756
0.564756
0.564756
0.564757
0.564757
0.564758
0.564758
0.564758
0.564759
0.564759
0.56476
0.56476
0.56476
0.564761
0.564761
0.564762
0.564762
0.564762
0.564763
0.564763
0.564764
0.564764
0.564764
0.564765
0.564765
0.564765
0.564765
0.564766
0.564766
0.564767
0.564767
0.564767
0.564768
0.564768
0.564769
0.56477
0.56477
0.56477
0.564771
0.564771
0.564772
0.564772
0.564772
0.564773
0.564773
0.564774
0.564774
0.564774
0.564775
0.564775
0.564776
0.564776
0.564776
0.564777
0.564777
0.564778
0.564778
0.564778
0.564779
0.564779
0.56478
0.56478
0.56478
0.564781
0.564781
0.564782
0.564782
0.564782
0.564783
0.564783
0.564784
0.564784
0.564784
0.564785
0.564785
0.564786
0.564786
0.564786
0.564787
0.564787
0.564788
0.564788
0.564788
0.564789
0.56479
0.56479
0.56479
0.564791
0.564791
0.564792
0.564792
0.564792
0.564793
0.564793
0.564794
0.564794
0.564794
0.564795
0.564795
0.564796
0.564796
0.564796
0.564797
0.564797
0.564798
0.564799
0.564799
0.564799
0.5648
0.5648
0.564801
0.564801
0.564801
0.564802
0.564802
0.564803
0.564803
0.564803
0.564804
0.564804
0.564805
0.564805
0.564806
0.564806
0.564807
0.564807
0.564807
0.564808
0.564808
0.564809
0.564809
0.564809
0.56481
0.56481
0.564811
0.564811
0.564811
0.564812
0.564813
0.564813
0.564814
0.564814
0.564814
0.564815
0.564815
0.564816
0.564816
0.564816
0.564817
0.564818
0.564818
0.564818
0.564819
0.564819
0.56482
0.56482
0.56482
0.564821
0.564821
0.564822
0.564823
0.564823
0.564823
0.564824
0.564824
0.564825
0.564825
0.564825
0.564826
0.564827
0.564827
0.564827
0.564828
0.564828
0.564829
0.564829
0.564829
0.56483
0.56483
0.564831
0.564832
0.564832
0.564832
0.564833
0.564833
0.564834
0.564834
0.564834
0.564835
0.564836
0.564836
0.564836
0.564837
0.564837
0.564838
0.564839
0.564839
0.564839
0.56484
0.56484
0.564841
0.564841
0.564841
0.564842
0.564843
0.564843
0.564843
0.564844
0.564844
0.564845
0.564845
0.564845
0.564846
0.564847
0.564847
0.564848
0.564848
0.564848
0.564849
0.56485
0.56485
0.56485
0.564851
0.564851
0.564852
0.564853
0.564853
0.564853
0.564854
0.564854
0.564855
0.564855
0.564856
0.564856
0.564857
0.564857
0.564857
0.564858
0.564859
0.564859
0.56486
0.56486
0.56486
0.564861
0.564862
0.564862
0.564862
0.564863
0.564863
0.564864
0.564865
0.564865
0.564865
0.564866
0.564866
0.564867
0.564867
0.564868
0.564868
0.564869
0.564869
0.564869
0.56487
0.564871
0.564871
0.564872
0.564872
0.564872
0.564873
0.564874
0.564874
0.564874
0.564875
0.564876
0.564876
0.564877
0.564877
0.564877
0.564878
0.564879
0.564879
0.564879
0.56488
0.56488
0.564881
0.564882
0.564882
0.564882
0.564883
0.564884
0.564884
0.564884
0.564885
0.564885
0.564886
0.564887
0.564887
0.564887
0.564888
0.564889
0.564889
0.564889
0.56489
0.564891
0.564891
0.564892
0.564892
0.564892
0.564893
0.564894
0.564894
0.564894
0.564895
0.564896
0.564896
0.564897
0.564897
0.564898
0.564898
0.564899
0.564899
0.564899
0.5649
0.564901
0.564901
0.564902
0.564902
0.564903
0.564903
0.564904
0.564905
0.564905
0.564905
0.564906
0.564907
0.564907
0.564907
0.564908
0.564908
0.564909
0.56491
0.56491
0.56491
0.564911
0.564912
0.564912
0.564912
0.564913
0.564914
0.564914
0.564915
0.564915
0.564916
0.564916
0.564917
0.564918
0.564918
0.564918
0.564919
0.56492
0.56492
0.56492
0.564921
0.564922
0.564922
0.564923
0.564923
0.564924
0.564924
0.564925
0.564926
0.564926
0.564926
0.564927
0.564928
0.564928
0.564928
0.564929
0.56493
0.56493
0.564931
0.564931
0.564932
0.564932
0.564933
0.564934
0.564934
0.564934
0.564935
0.564936
0.564936
0.564936
0.564937
0.564938
0.564938
0.564939
0.564939
0.56494
0.56494
0.564941
0.564942
0.564942
0.564943
0.564943
0.564944
0.564945
0.564945
0.564945
0.564946
0.564947
0.564947
0.564947
0.564948
0.564949
0.564949
0.56495
0.56495
0.564951
0.564952
0.564952
0.564953
0.564953
0.564954
0.564954
0.564955
0.564956
0.564956
0.564956
0.564957
0.564958
0.564958
0.564958
0.564959
0.56496
0.564961
0.564961
0.564961
0.564962
0.564963
0.564963
0.564964
0.564964
0.564965
0.564966
0.564966
0.564967
0.564967
0.564968
0.564968
0.564969
0.56497
0.56497
0.56497
0.564971
0.564972
0.564973
0.564973
0.564973
0.564974
0.564975
0.564976
0.564976
0.564976
0.564977
0.564978
0.564978
0.564978
0.564979
0.56498
0.564981
0.564981
0.564981
0.564982
0.564983
0.564983
0.564984
0.564984
0.564985
0.564986
0.564986
0.564987
0.564987
0.564988
0.564989
0.564989
0.56499
0.56499
0.564991
0.564991
0.564992
0.564993
0.564993
0.564994
0.564994
0.564995
0.564996
0.564996
0.564997
0.564997
0.564998
0.564999
0.564999
0.565
0.565
0.565001
0.565002
0.565002
0.565003
0.565003
0.565004
0.565005
0.565005
0.565006
0.565006
0.565007
0.565008
0.565008
0.565009
0.565009
0.56501
0.565011
0.565011
0.565012
0.565012
0.565013
0.565014
0.565014
0.565014
0.565015
0.565016
0.565017
0.565017
0.565017
0.565018
0.565019
0.56502
0.56502
0.565021
0.565021
0.565022
0.565023
0.565023
0.565024
0.565024
0.565025
0.565026
0.565026
0.565027
0.565028
0.565028
0.565029
0.565029
0.56503
0.565031
0.565031
0.565032
0.565032
0.565033
0.565034
0.565034
0.565035
0.565035
0.565036
0.565037
0.565038
0.565038
0.565038
0.565039
0.56504
0.565041
0.565041
0.565041
0.565042
0.565043
0.565044
0.565045
0.565045
0.565045
0.565046
0.565047
0.565048
0.565048
0.565049
0.565049
0.56505
0.565051
0.565051
0.565052
0.565052
0.565053
0.565054
0.565054
0.565055
0.565056
0.565056
0.565057
0.565057
0.565058
0.565059
0.56506
0.56506
0.56506
0.565061
0.565062
0.565063
0.565064
0.565064
0.565064
0.565065
0.565066
0.565067
0.565067
0.565068
0.565068
0.565069
0.56507
0.56507
0.565071
0.565072
0.565073
0.565073
0.565073
0.565074
0.565075
0.565076
0.565077
0.565077
0.565077
0.565078
0.565079
0.56508
0.56508
0.565081
0.565082
0.565082
0.565083
0.565083
0.565084
0.565085
0.565086
0.565086
0.565086
0.565087
0.565088
0.565089
0.56509
0.56509
0.565091
0.565091
0.565092
0.565093
0.565093
0.565094
0.565095
0.565096
0.565096
0.565096
0.565097
0.565098
0.565099
0.5651
0.5651
0.565101
0.565101
0.565102
0.565103
0.565103
0.565104
0.565105
0.565106
0.565106
0.565106
0.565107
0.565108
0.565109
0.56511
0.56511
0.565111
0.565111
0.565112
0.565113
0.565113
0.565114
0.565115
0.565116
0.565117
0.565117
0.565118
0.565118
0.565119
0.56512
0.56512
0.565121
0.565122
0.565123
0.565124
0.565124
0.565124
0.565125
0.565126
0.565127
0.565127
0.565128
0.565129
0.56513
0.56513
0.56513
0.565131
0.565132
0.565133
0.565134
0.565134
0.565135
0.565136
0.565137
0.565137
0.565137
0.565138
0.565139
0.56514
0.565141
0.565141
0.565142
0.565143
0.565144
0.565144
0.565144
0.565145
0.565146
0.565147
0.565148
0.565148
0.565149
0.56515
0.565151
0.565151
0.565151
0.565152
0.565153
0.565154
0.565155
0.565155
0.565156
0.565157
0.565158
0.565159
0.565159
0.565159
0.56516
0.565161
0.565162
0.565162
0.565163
0.565164
0.565165
0.565166
0.565166
0.565167
0.565168
0.565168
0.565169
0.565169
0.56517
0.565171
0.565172
0.565173
0.565173
0.565174
0.565175
0.565176
0.565177
0.565177
0.565177
0.565178
0.565179
0.56518
0.56518
0.565181
0.565182
0.565183
0.565184
0.565184
0.565185
0.565186
0.565187
0.565188
0.565188
0.565188
0.565189
0.56519
0.565191
0.565191
0.565192
0.565193
0.565194
0.565195
0.565195
0.565196
0.565197
0.565198
0.565199
0.565199
0.565199
0.5652
0.565201
0.565202
0.565202
0.565203
0.565204
0.565205
0.565206
0.565206
0.565207
0.565208
0.565209
0.56521
0.56521
0.565211
0.565212
0.565213
0.565214
0.565214
0.565215
0.565216
0.565216
0.565217
0.565217
0.565218
0.565219
0.56522
0.565221
0.565221
0.565222
0.565223
0.565224
0.565225
0.565225
0.565226
0.565227
0.565228
0.565229
0.565229
0.56523
0.565231
0.565232
0.565233
0.565233
0.565234
0.565235
0.565236
0.565237
0.565237
0.565238
0.565238
0.565239
0.56524
0.56524
0.565241
0.565242
0.565243
0.565244
0.565244
0.565245
0.565246
0.565247
0.565248
0.565248
0.565249
0.56525
0.565251
0.565252
0.565252
0.565253
0.565254
0.565255
0.565256
0.565256
0.565257
0.565258
0.565259
0.56526
0.56526
0.565261
0.565262
0.565263
0.565264
0.565264
0.565265
0.565266
0.565267
0.565268
0.565268
0.565269
0.56527
0.565271
0.565272
0.565272
0.565273
0.565274
0.565275
0.565276
0.565276
0.565277
0.565278
0.565279
0.56528
0.56528
0.565281
0.565282
0.565283
0.565284
0.565284
0.565285
0.565286
0.565287
0.565288
0.565288
0.565289
0.56529
0.565291
0.565292
0.565292
0.565293
0.565294
0.565295
0.565296
0.565296
0.565297
0.565298
0.565299
0.5653
0.5653
0.565301
0.565302
0.565303
0.565304
0.565304
0.565305
0.565306
0.565307
0.565308
0.565308
0.565309
0.56531
0.565311
0.565312
0.565312
0.565314
0.565315
0.565316
0.565317
0.565317
0.565318
0.565319
0.56532
0.565321
0.565321
0.565322
0.565323
0.565324
0.565325
0.565325
0.565326
0.565327
0.565328
0.565329
0.565329
0.56533
0.565331
0.565332
0.565333
0.565333
0.565334
0.565335
0.565337
0.565338
0.565338
0.565339
0.56534
0.565341
0.565342
0.565342
0.565343
0.565344
0.565345
0.565346
0.565346
0.565347
0.565348
0.565349
0.56535
0.56535
0.565351
0.565352
0.565354
0.565355
0.565355
0.565356
0.565357
0.565358
0.565359
0.565359
0.56536
0.565361
0.565362
0.565363
0.565363
0.565364
0.565365
0.565366
0.565368
0.565368
0.565369
0.56537
0.565371
0.565372
0.565372
0.565373
0.565374
0.565375
0.565376
0.565376
0.565377
0.565378
0.56538
0.565381
0.565381
0.565382
0.565383
0.565384
0.565385
0.565385
0.565386
0.565387
0.565388
0.565389
0.565389
0.56539
0.565392
0.565393
0.565394
0.565394
0.565395
0.565396
0.565397
0.565398
0.565398
0.565399
0.5654
0.565402
0.565403
0.565403
0.565404
0.565405
0.565406
0.565407
0.565407
0.565408
0.565409
0.565411
0.565412
0.565412
0.565413
0.565414
0.565415
0.565416
0.565416
0.565417
0.565418
0.56542
0.565421
0.565421
0.565422
0.565423
0.565424
0.565425
0.565425
0.565426
0.565428
0.565429
0.56543
0.56543
0.565431
0.565432
0.565433
0.565434
0.565434
0.565436
0.565437
0.565438
0.565439
0.565439
0.56544
0.565441
0.565442
0.565444
0.565444
0.565445
0.565446
0.565447
0.565448
0.565448
0.565449
0.565451
0.565452
0.565453
0.565453
0.565454
0.565455
0.565456
0.565458
0.565458
0.565459
0.56546
0.565461
0.565462
0.565462
0.565463
0.565465
0.565466
0.565467
0.565467
0.565468
0.565469
0.56547
0.565472
0.565472
0.565473
0.565474
0.565475
0.565476
0.565476
0.565477
0.565479
0.56548
0.565481
0.565481
0.565482
0.565483
0.565485
0.565486
0.565486
0.565487
0.565488
0.565489
0.565491
0.565491
0.565492
0.565493
0.565494
0.565495
0.565495
0.565496
0.565498
0.565499
0.5655
0.5655
0.565501
0.565502
0.565504
0.565505
0.565505
0.565506
0.565507
0.565509
0.56551
0.56551
0.565511
0.565512
0.565513
0.565515
0.565515
0.565516
0.565517
0.565518
0.56552
0.56552
0.565521
0.565522
0.565523
0.565524
0.565524
0.565526
0.565527
0.565528
0.565529
0.565529
0.565531
0.565532
0.565533
0.565534
0.565534
0.565536
0.565537
0.565538
0.565539
0.565539
0.565541
0.565542
0.565543
0.565544
0.565544
0.565545
0.565547
0.565548
0.565549
0.565549
0.56555
0.565552
0.565553
0.565554
0.565554
0.565555
0.565557
0.565558
0.565559
0.565559
0.565561
0.565562
0.565563
0.565564
0.565564
0.565566
0.565567
0.565568
0.565569
0.565569
0.565571
0.565572
0.565573
0.565574
0.565574
0.565576
0.565577
0.565578
0.56558
0.56558
0.565581
0.565582
0.565583
0.565585
0.565585
0.565586
0.565587
0.565588
0.56559
0.56559
0.565591
0.565592
0.565594
0.565595
0.565595
0.565596
0.565597
0.565599
0.5656
0.5656
0.565601
0.565603
0.565604
0.565605
0.565605
0.565606
0.565608
0.565609
0.56561
0.56561
0.565612
0.565613
0.565614
0.565616
0.565616
0.565617
0.565618
0.56562
0.565621
0.565621
0.565622
0.565624
0.565625
0.565626
0.565626
0.565628
0.565629
0.56563
0.565631
0.565631
0.565633
0.565634
0.565635
0.565637
0.565637
0.565638
0.565639
0.565641
0.565642
0.565642
0.565643
0.565645
0.565646
0.565647
0.565647
0.565649
0.56565
0.565651
0.565653
0.565653
0.565654
0.565656
0.565657
0.565658
0.565658
0.56566
0.565661
0.565662
0.565664
0.565664
0.565665
0.565666
0.565668
0.565669
0.565669
0.56567
0.565672
0.565673
0.565674
0.565674
0.565676
0.565677
0.565679
0.56568
0.56568
0.565681
0.565683
0.565684
0.565685
0.565685
0.565687
0.565688
0.565689
0.565691
0.565691
0.565692
0.565694
0.565695
0.565696
0.565696
0.565698
0.565699
0.565701
0.565702
0.565702
0.565703
0.565705
0.565706
0.565707
0.565707
0.565709
0.56571
0.565712
0.565713
0.565713
0.565714
0.565716
0.565717
0.565718
0.565718
0.56572
0.565721
0.565723
0.565724
0.565724
0.565726
0.565727
0.565728
0.56573
0.56573
0.565731
0.565733
0.565734
0.565736
0.565736
0.565737
0.565738
0.56574
0.565741
0.565741
0.565743
0.565744
0.565746
0.565747
0.565747
0.565748
0.56575
0.565751
0.565753
0.565753
0.565754
0.565756
0.565757
0.565758
0.565758
0.56576
0.565761
0.565763
0.565764
0.565764
0.565766
0.565767
0.565769
0.56577
0.56577
0.565771
0.565773
0.565774
0.565776
0.565776
0.565777
0.565779
0.56578
0.565782
0.565782
0.565783
0.565784
0.565786
0.565787
0.565787
0.565789
0.56579
0.565792
0.565793
0.565793
0.565795
0.565796
0.565798
0.565799
0.565799
0.565801
0.565802
0.565804
0.565805
0.565805
0.565807
0.565808
0.56581
0.565811
0.565811
0.565813
0.565814
0.565815
0.565817
0.565817
0.565818
0.56582
0.565821
0.565823
0.565823
0.565824
0.565826
0.565827
0.565829
0.565829
0.56583
0.565832
0.565833
0.565835
0.565835
0.565836
0.565838
0.565839
0.565841
0.565841
0.565842
0.565844
0.565845
0.565847
0.565847
0.565849
0.56585
0.565852
0.565853
0.565853
0.565855
0.565856
0.565858
0.565859
0.565859
0.565861
0.565862
0.565864
0.565865
0.565865
0.565867
0.565868
0.56587
0.565872
0.565872
0.565873
0.565875
0.565876
0.565878
0.565878
0.565879
0.565881
0.565882
0.565884
0.565884
0.565885
0.565887
0.565889
0.56589
0.56589
0.565892
0.565893
0.565895
0.565896
0.565896
0.565898
0.565899
0.565901
0.565903
0.565903
0.565904
0.565906
0.565907
0.565909
0.565909
0.56591
0.565912
0.565914
0.565915
0.565915
0.565917
0.565918
0.56592
0.565922
0.565922
0.565923
0.565925
0.565926
0.565928
0.565928
0.56593
0.565931
0.565933
0.565934
0.565934
0.565936
0.565937
0.565939
0.565941
0.565941
0.565942
0.565944
0.565945
0.565947
0.565947
0.565949
0.56595
0.565952
0.565953
0.565953
0.565955
0.565957
0.565958
0.56596
0.56596
0.565962
0.565963
0.565965
0.565966
0.565966
0.565968
0.56597
0.565971
0.565973
0.565973
0.565975
0.565976
0.565978
0.56598
0.56598
0.565981
0.565983
0.565985
0.565986
0.565986
0.565988
0.565989
0.565991
0.565993
0.565993
0.565994
0.565996
0.565998
0.565999
0.565999
0.566001
0.566003
0.566004
0.566006
0.566006
0.566008
0.566009
0.566011
0.566013
0.566013
0.566014
0.566016
0.566018
0.566019
0.566019
0.566021
0.566023
0.566024
0.566026
0.566026
0.566028
0.566029
0.566031
0.566033
0.566033
0.566035
0.566036
0.566038
0.56604
0.56604
0.566041
0.566043
0.566045
0.566046
0.566046
0.566048
0.56605
0.566052
0.566053
0.566053
0.566055
0.566057
0.566058
0.56606
0.56606
0.566062
0.566063
0.566065
0.566067
0.566067
0.566069
0.56607
0.566072
0.566074
0.566074
0.566075
0.566077
0.566079
0.56608
0.56608
0.566082
0.566084
0.566086
0.566088
0.566088
0.566089
0.566091
0.566093
0.566095
0.566095
0.566096
0.566098
0.5661
0.566102
0.566102
0.566103
0.566105
0.566107
0.566109
0.566109
0.56611
0.566112
0.566114
0.566116
0.566116
0.566117
0.566119
0.566121
0.566123
0.566123
0.566125
0.566126
0.566128
0.56613
0.56613
0.566132
0.566133
0.566135
0.566137
0.566137
0.566139
0.566141
0.566142
0.566144
0.566144
0.566146
0.566148
0.56615
0.566151
0.566151
0.566153
0.566155
0.566157
0.566159
0.566159
0.56616
0.566162
0.566164
0.566166
0.566166
0.566168
0.566169
0.566171
0.566173
0.566173
0.566175
0.566177
0.566178
0.56618
0.56618
0.566182
0.566184
0.566186
0.566188
0.566188
0.566189
0.566191
0.566193
0.566195
0.566195
0.566197
0.566199
0.5662
0.566202
0.566202
0.566204
0.566206
0.566208
0.566209
0.566209
0.566211
0.566213
0.566215
0.566217
0.566217
0.566219
0.566221
0.566223
0.566225
0.566225
0.566226
0.566228
0.56623
0.566232
0.566232
0.566234
0.566236
0.566238
0.56624
0.56624
0.566241
0.566243
0.566245
0.566247
0.566247
0.566249
0.566251
0.566253
0.566255
0.566255
0.566257
0.566258
0.56626
0.566262
0.566262
0.566264
0.566266
0.566268
0.56627
0.56627
0.566272
0.566274
0.566276
0.566278
0.566278
0.566279
0.566281
0.566283
0.566285
0.566285
0.566287
0.566289
0.566291
0.566293
0.566293
0.566295
0.566297
0.566299
0.566301
0.566301
0.566303
0.566305
0.566306
0.566308
0.566308
0.56631
0.566312
0.566314
0.566316
0.566316
0.566318
0.56632
0.566322
0.566324
0.566324
0.566326
0.566328
0.56633
0.566332
0.566332
0.566334
0.566336
0.566338
0.56634
0.56634
0.566341
0.566343
0.566345
0.566347
0.566347
0.56635
0.566352
0.566354
0.566356
0.566356
0.566358
0.56636
0.566362
0.566364
0.566364
0.566366
0.566368
0.56637
0.566372
0.566372
0.566374
0.566376
0.566378
0.56638
0.56638
0.566382
0.566384
0.566386
0.566388
0.566388
0.56639
0.566392
0.566394
0.566396
0.566396
0.566398
0.5664
0.566402
0.566404
0.566404
0.566406
0.566408
0.56641
0.566412
0.566412
0.566414
0.566416
0.566418
0.56642
0.56642
0.566422
0.566424
0.566426
0.566428
0.566428
0.566431
0.566433
0.566435
0.566437
0.566437
0.566439
0.566441
0.566443
0.566445
0.566445
0.566447
0.566449
0.566451
0.566453
0.566453
0.566455
0.566457
0.56646
0.566462
0.566462
0.566464
0.566466
0.566468
0.56647
0.56647
0.566472
0.566474
0.566476
0.566478
0.566478
0.56648
0.566482
0.566485
0.566487
0.566487
0.566489
0.566491
0.566493
0.566495
0.566495
0.566497
0.5665
0.566502
0.566504
0.566504
0.566506
0.566508
0.56651
0.566512
0.566512
0.566514
0.566517
0.566519
0.566521
0.566521
0.566523
0.566525
0.566527
0.56653
0.56653
0.566532
0.566534
0.566536
0.566538
0.566538
0.56654
0.566542
0.566545
0.566547
0.566547
0.566549
0.566551
0.566553
0.566556
0.566556
0.566558
0.56656
0.566562
0.566564
0.566564
0.566566
0.566569
0.566571
0.566573
0.566573
0.566575
0.566577
0.56658
0.566582
0.566582
0.566584
0.566586
0.566588
0.566591
0.566591
0.566593
0.566595
0.566597
0.5666
0.5666
0.566602
0.566604
0.566606
0.566608
0.566608
0.566611
0.566613
0.566615
0.566617
0.566617
0.566619
0.566622
0.566624
0.566626
0.566626
0.566628
0.566631
0.566633
0.566635
0.566635
0.566638
0.56664
0.566642
0.566644
0.566644
0.566647
0.566649
0.566651
0.566653
0.566653
0.566656
0.566658
0.56666
0.566663
0.566663
0.566665
0.566667
0.566669
0.566672
0.566672
0.566674
0.566676
0.566679
0.566681
0.566681
0.566683
0.566686
0.566688
0.56669
0.56669
0.566692
0.566695
0.566697
0.566699
0.566699
0.566702
0.566704
0.566706
0.566709
0.566709
0.566711
0.566713
0.566716
0.566718
0.566718
0.56672
0.566723
0.566725
0.566727
0.566727
0.56673
0.566732
0.566734
0.566737
0.566737
0.566739
0.566741
0.566744
0.566746
0.566746
0.566749
0.566751
0.566753
0.566756
0.566756
0.566758
0.56676
0.566763
0.566765
0.566765
0.566767
0.56677
0.566772
0.566774
0.566774
0.566777
0.566779
0.566782
0.566784
0.566784
0.566787
0.566789
0.566791
0.566794