<?xml version="1.0"?>
<VTKFile type="UnstructuredGrid" version="0.1" byte_order="LittleEndian">
<UnstructuredGrid>
<Piece NumberOfPoints="5000" NumberOfCells="4000">
<PointData Scalars="Reaction 0">
<DataArray type="Float32" Name="Reaction 0" format="ascii">
0.567747
0.567747
0.567747
0.567747
0.567747
0.567747
0.567747
0.567747
0.567747
0.567747
0.567747
0.567747
0.567747
0.567748
0.567748
0.567748
0.567748
0.567748
0.567748
0.567748
0.567748
0.567748
0.567748
0.567748
0.567748
0.567748
0.567748
0.567748
0.567748
0.567748
0.567748
0.567748
0.567748
0.567748
0.567748
0.567748
0.567748
0.567748
0.567748
0.567748
0.567748
0.567748
0.567748
0.567748
0.567748
0.567748
0.567748
0.567749
0.567749
0.567749
0.567749
0.567749
0.567749
0.567749
0.567749
0.567749
0.567749
0.567749
0.567749
0.567749
0.567749
0.567749
0.567749
0.567749
0.567749
0.567749
0.56775
0.56775
0.56775
0.56775
0.56775
0.56775
0.56775
0.56775
0.56775
0.56775
0.56775
0.56775
0.56775
0.567751
0.567751
0.567751
0.567751
0.567751
0.567751
0.567751
0.567751
0.567751
0.567751
0.567751
0.567751
0.567751
0.567752
0.567752
0.567752
0.567752
0.567752
0.567752
0.567752
0.567752
0.567752
0.567752
0.567753
0.567753
0.567753
0.567753
0.567753
0.567753
0.567753
0.567753
0.567753
0.567753
0.567754
0.567754
0.567754
0.567754
0.567754
0.567754
0.567754
0.567754
0.567754
0.567755
0.567755
0.567755
0.567755
0.567755
0.567755
0.567755
0.567755
0.567756
0.567756
0.567756
0.567756
0.567756
0.567756
0.567756
0.567756
0.567757
0.567757
0.567757
0.567757
0.567757
0.567757
0.567757
0.567758
0.567758
0.567758
0.567758
0.567758
0.567758
0.567758
0.567759
0.567759
0.567759
0.567759
0.567759
0.567759
0.567759
0.56776
0.56776
0.56776
0.56776
0.56776
0.56776
0.567761
0.567761
0.567761
0.567761
0.567761
0.567761
0.567761
0.567762
0.567762
0.567762
0.567762
0.567762
0.567762
0.567763
0.567763
0.567763
0.567763
0.567763
0.567764
0.567764
0.567764
0.567764
0.567764
0.567764
0.567765
0.567765
0.567765
0.567765
0.567765
0.567766
0.567766
0.567766
0.567766
0.567766
0.567767
0.567767
0.567767
0.567767
0.567767
0.567768
0.567768
0.567768
0.567768
0.567768
0.567769
0.567769
0.567769
0.567769
0.567769
0.56777
0.56777
0.56777
0.56777
0.56777
0.567771
0.567771
0.567771
0.567771
0.567771
0.567772
0.567772
0.567772
0.567772
0.567773
0.567773
0.567773
0.567773
0.567773
0.567774
0.567774
0.567774
0.567774
0.567775
0.567775
0.567775
0.567775
0.567775
0.567776
0.567776
0.567776
0.567777
0.567777
0.567777
0.567777
0.567777
0.567778
0.567778
0.567778
0.567778
0.567779
0.567779
0.567779
0.567779
0.56778
0.56778
0.56778
0.56778
0.567781
0.567781
0.567781
0.567782
0.567782
0.567782
0.567782
0.567783
0.567783
0.567783
0.567783
0.567784
0.567784
0.567784
0.567784
0.567785
0.567785
0.567785
0.567786
0.567786
0.567786
0.567786
0.567787
0.567787
0.567787
0.567787
0.567788
0.567788
0.567788
0.567788
0.567789
0.567789
0.567789
0.56779
0.56779
0.56779
0.567791
0.567791
0.567791
0.567791
0.567792
0.567792
0.567792
0.567793
0.567793
0.567793
0.567793
0.567794
0.567794
0.567794
0.567795
0.567795
0.567795
0.567796
0.567796
0.567796
0.567797
0.567797
0.567797
0.567797
0.567798
0.567798
0.567798
0.567799
0.567799
0.567799
0.5678
0.5678
0.5678
0.5678
0.567801
0.567801
0.567802
0.567802
0.567802
0.567803
0.567803
0.567803
0.567804
0.567804
0.567804
0.567805
0.567805
0.567805
0.567805
0.567806
0.567806
0.567807
0.567807
0.567807
0.567808
0.567808
0.567808
0.567809
0.567809
0.567809
0.56781
0.56781
0.567811
0.567811
0.567811
0.567811
0.567812
0.567812
0.567812
0.567813
0.567813
0.567814
0.567814
0.567814
0.567815
0.567815
0.567815
0.567816
0.567816
0.567816
0.567817
0.567817
0.567818
0.567818
0.567818
0.567819
0.567819
0.56782
0.56782
0.56782
0.567821
0.567821
0.567822
0.567822
0.567822
0.567823
0.567823
0.567824
0.567824
0.567824
0.567825
0.567825
0.567826
0.567826
0.567826
0.567827
0.567827
0.567828
0.567828
0.567828
0.567829
0.567829
0.56783
0.56783
0.56783
0.567831
0.567831
0.567832
0.567832
0.567832
0.567833
0.567833
0.567834
0.567834
0.567834
0.567835
0.567835
0.567836
0.567836
0.567836
0.567837
0.567837
0.567838
0.567838
0.567838
0.567839
0.567839
0.56784
0.56784
0.567841
0.567841
0.567842
0.567842
0.567842
0.567843
0.567843
0.567844
0.567844
0.567844
0.567845
0.567845
0.567846
0.567847
0.567847
0.567847
0.567848
0.567848
0.567849
0.567849
0.567849
0.56785
0.56785
0.567851
0.567851
0.567852
0.567852
0.567853
0.567853
0.567853
0.567854
0.567854
0.567855
0.567856
0.567856
0.567856
0.567857
0.567857
0.567858
0.567858
0.567859
0.567859
0.56786
0.56786
0.56786
0.567861
0.567862
0.567862
0.567863
0.567863
0.567863
0.567864
0.567865
0.567865
0.567865
0.567866
0.567866
0.567867
0.567868
0.567868
0.567868
0.567869
0.567869
0.56787
0.56787
0.567871
0.567871
0.567872
0.567873
0.567873
0.567873
0.567874
0.567874
0.567875
0.567875
0.567876
0.567876
0.567877
0.567878
0.567878
0.567878
0.567879
0.56788
0.56788
0.56788
0.567881
0.567882
0.567882
0.567883
0.567883
0.567883
0.567884
0.567885
0.567885
0.567885
0.567886
0.567887
0.567887
0.567888
0.567888
0.567889
0.567889
0.56789
0.567891
0.567891
0.567891
0.567892
0.567893
0.567894
0.567894
0.567894
0.567895
0.567896
0.567896
0.567896
0.567897
0.567898
0.567898
0.567899
0.567899
0.5679
0.5679
0.567901
0.567902
0.567902
0.567902
0.567903
0.567904
0.567905
0.567905
0.567905
0.567906
0.567907
0.567907
0.567907
0.567908
0.567909
0.56791
0.56791
0.56791
0.567911
0.567912
0.567912
0.567913
0.567913
0.567914
0.567915
0.567915
0.567916
0.567916
0.567917
0.567918
0.567918
0.567919
0.567919
0.56792
0.567921
0.567921
0.567922
0.567922
0.567923
0.567924
0.567924
0.567925
0.567925
0.567926
0.567927
0.567927
0.567928
0.567928
0.567929
0.56793
0.56793
0.567931
0.567931
0.567932
0.567933
0.567933
0.567934
0.567934
0.567935
0.567936
0.567937
0.567937
0.567937
0.567938
0.567939
0.56794
0.56794
0.56794
0.567941
0.567942
0.567943
0.567944
0.567944
0.567944
0.567945
0.567946
0.567947
0.567947
0.567948
0.567948
0.567949
0.56795
0.56795
0.567951
0.567952
0.567952
0.567953
0.567953
0.567954
0.567955
0.567956
0.567956
0.567956
0.567957
0.567958
0.567959
0.56796
0.56796
0.567961
0.567961
0.567962
0.567963
0.567963
0.567964
0.567965
0.567966
0.567966
0.567966
0.567967
0.567968
0.567969
0.56797
0.56797
0.567971
0.567972
0.567972
0.567973
0.567973
0.567974
0.567975
0.567976
0.567977
0.567977
0.567978
0.567978
0.567979
0.56798
0.56798
0.567981
0.567982
0.567983
0.567984
0.567984
0.567985
0.567985
0.567986
0.567987
0.567987
0.567988
0.567989
0.56799
0.567991
0.567991
0.567992
0.567992
0.567993
0.567994
0.567994
0.567995
0.567996
0.567997
0.567998
0.567998
0.567999
0.568
0.568001
0.568002
0.568002
0.568002
0.568003
0.568004
0.568005
0.568005
0.568006
0.568007
0.568008
0.568009
0.568009
0.56801
0.568011
0.568012
0.568013
0.568013
0.568014
0.568014
0.568015
0.568016
0.568016
0.568017
0.568018
0.568019
0.56802
0.56802
0.568021
0.568022
0.568023
0.568024
0.568024
0.568025
0.568026
0.568027
0.568028
0.568028
0.568029
0.56803
0.568031
0.568032
0.568032
0.568033
0.568033
0.568034
0.568035
0.568035
0.568036
0.568037
0.568038
0.568039
0.568039
0.56804
0.568041
0.568042
0.568043
0.568043
0.568044
0.568045
0.568046
0.568047
0.568047
0.568048
0.568049
0.56805
0.568051
0.568051
0.568052
0.568053
0.568054
0.568055
0.568055
0.568056
0.568057
0.568058
0.568059
0.568059
0.56806
0.568061
0.568062
0.568063
0.568063
0.568064
0.568065
0.568066
0.568067
0.568067
0.568068
0.56807
0.568071
0.568072
0.568072
0.568073
0.568074
0.568075
0.568076
0.568076
0.568077
0.568078
0.568079
0.56808
0.56808
0.568081
0.568082
0.568083
0.568084
0.568084
0.568085
0.568086
0.568087
0.568089
0.568089
0.56809
0.568091
0.568092
0.568093
0.568093
0.568094
0.568095
0.568096
0.568097
0.568097
0.568098
0.568099
0.5681
0.568102
0.568102
0.568103
0.568104
0.568105
0.568106
0.568106
0.568107
0.568108
0.568109
0.56811
0.56811
0.568111
0.568113
0.568114
0.568115
0.568115
0.568116
0.568117
0.568118
0.568119
0.568119
0.56812
0.568121
0.568123
0.568124
0.568124
0.568125
0.568126
0.568127
0.568128
0.568128
0.568129
0.56813
0.568132
0.568133
0.568133
0.568134
0.568135
0.568136
0.568137
0.568137
0.568139
0.56814
0.568141
0.568142
0.568142
0.568143
0.568144
0.568145
0.568147
0.568147
0.568148
0.568149
0.56815
0.568151
0.568151
0.568152
0.568154
0.568155
0.568156
0.568156
0.568157
0.568158
0.56816
0.568161
0.568161
0.568162
0.568163
0.568164
0.568166
0.568166
0.568167
0.568168
0.568169
0.56817
0.56817
0.568172
0.568173
0.568174
0.568175
0.568175
0.568176
0.568178
0.568179
0.56818
0.56818
0.568181
0.568182
0.568184
0.568185
0.568185
0.568186
0.568187
0.568189
0.56819
0.56819
0.568191
0.568192
0.568194
0.568195
0.568195
0.568196
0.568197
0.568198
0.5682
0.5682
0.568201
0.568202
0.568204
0.568205
0.568205
0.568206
0.568207
0.568209
0.56821
0.56821
0.568211
0.568212
0.568214
0.568215
0.568215
0.568216
0.568217
0.568219
0.56822
0.56822
0.568221
0.568223
0.568224
0.568225
0.568225
0.568226
0.568228
0.568229
0.56823
0.56823
0.568232
0.568233
0.568234
0.568236
0.568236
0.568237
0.568238
0.568239
0.568241
0.568241
0.568242
0.568243
0.568245
0.568246
0.568246
0.568247
0.568249
0.56825
0.568251
0.568251
0.568253
0.568254
0.568255
0.568257
0.568257
0.568258
0.568259
0.568261
0.568262
0.568262
0.568263
0.568265
0.568266
0.568267
0.568267
0.568269
0.56827
0.568271
0.568273
0.568273
0.568274
0.568276
0.568277
0.568278
0.568278
0.56828
0.568281
0.568282
0.568284
0.568284
0.568285
0.568287
0.568288
0.568289
0.568289
0.568291
0.568292
0.568293
0.568295
0.568295
0.568296
0.568298
0.568299
0.5683
0.5683
0.568302
0.568303
0.568305
0.568306
0.568306
0.568307
0.568309
0.56831
0.568312
0.568312
0.568313
0.568315
0.568316
0.568317
0.568317
0.568319
0.56832
0.568322
0.568323
0.568323
0.568324
0.568326
0.568327
0.568329
0.568329
0.56833
0.568332
0.568333
0.568334
0.568334
0.568336
0.568337
0.568339
0.56834
0.56834
0.568342
0.568343
0.568345
0.568346
0.568346
0.568348
0.568349
0.568351
0.568352
0.568352
0.568354
0.568355
0.568357
0.568358
0.568358
0.56836
0.568361
0.568363
0.568364
0.568364
0.568366
0.568367
0.568369
0.56837
0.56837
0.568372
0.568373
0.568375
0.568376
0.568376
0.568378
0.568379
0.568381
0.568382
0.568382
0.568384
0.568385
0.568387
0.568388
0.568388
0.56839
0.568391
0.568393
0.568394
0.568394
0.568396
0.568397
0.568399
0.568401
0.568401
0.568402
0.568404
0.568405
0.568407
0.568407
0.568408
0.56841
0.568411
0.568413
0.568413
0.568415
0.568416
0.568418
0.568419
0.568419
0.568421
0.568422
0.568424
0.568426
0.568426
0.568427
0.568429
0.56843
0.568432
0.568432
0.568433
0.568435
0.568437
0.568438
0.568438
0.56844
0.568441
0.568443
0.568445
0.568445
0.568446
0.568448
0.568449
0.568451
0.568451
0.568453
0.568454
0.568456
0.568458
0.568458
0.568459
0.568461
0.568462
0.568464
0.568464
0.568466
0.568467
0.568469
0.568471
0.568471
0.568472
0.568474
0.568476
0.568477
0.568477
0.568479
0.56848
0.568482
0.568484
0.568484
0.568485
0.568487
0.568489
0.56849
0.56849
0.568492
0.568494
0.568495
0.568497
0.568497
0.568499
0.5685
0.568502
0.568504
0.568504
0.568506
0.568507
0.568509
0.568511
0.568511
0.568512
0.568514
0.568516
0.568517
0.568517
0.568519
0.568521
0.568522
0.568524
0.568524
0.568526
0.568528
0.568529
0.568531
0.568531
0.568533
0.568535
0.568536
0.568538
0.568538
0.56854
0.568541
0.568543
0.568545
0.568545
0.568547
0.568548
0.56855
0.568552
0.568552
0.568554
0.568555
0.568557
0.568559
0.568559
0.568561
0.568562
0.568564
0.568566
0.568566
0.568568
0.568569
0.568571
0.568573
0.568573
0.568575
0.568577
0.568578
0.56858
0.56858
0.568582
0.568584
0.568585
0.568587
0.568587
0.568589
0.568591
0.568593
0.568594
0.568594
0.568596
0.568598
0.5686
0.568602
0.568602
0.568603
0.568605
0.568607
0.568609
0.568609
0.568611
0.568612
0.568614
0.568616
0.568616
0.568618
0.56862
0.568622
0.568624
0.568624
0.568625
0.568627
0.568629
0.568631
0.568631
0.568633
0.568635
0.568637
0.568638
0.568638
0.56864
0.568642
0.568644
0.568646
0.568646
0.568648
0.56865
0.568652
0.568653
0.568653
0.568655
0.568657
0.568659
0.568661
0.568661
0.568663
0.568665
0.568667
0.568669
0.568669
0.56867
0.568672
0.568674
0.568676
0.568676
0.568678
0.56868
0.568682
0.568684
0.568684
0.568686
0.568688
0.56869
0.568692
0.568692
0.568693
0.568695
0.568697
0.568699
0.568699
0.568701
0.568703
0.568705
0.568707
0.568707
0.568709
0.568711
0.568713
0.568715
0.568715
0.568717
0.568719
0.568721
0.568723
0.568723
0.568725
0.568727
0.568729
0.568731
0.568731
0.568733
0.568735
0.568737
0.568739
0.568739
0.568741
0.568743
0.568745
0.568747
0.568747
0.568749
0.568751
0.568753
0.568755
0.568755
0.568757
0.568759
0.568761
0.568763
0.568763
0.568765
0.568767
0.568769
0.568771
0.568771
0.568773
0.568775
0.568777
0.568779
0.568779
0.568781
0.568783
0.568785
0.568787
0.568787
0.568789
0.568791
0.568793
0.568795
0.568795
0.568797
0.568799
0.568801
0.568803
0.568803
0.568806
0.568808
0.56881
0.568812
0.568812
0.568814
0.568816
0.568818
0.56882
0.56882
0.568822
0.568824
0.568826
0.568829
0.568829
0.568831
0.568833
0.568835
0.568837
0.568837
0.568839
0.568841
0.568843
0.568845
0.568845
0.568848
0.56885
0.568852
0.568854
0.568854
0.568856
0.568858
0.56886
0.568862
0.568862
0.568865
0.568867
0.568869
0.568871
0.568871
0.568873
0.568875
0.568878
0.56888
0.56888
0.568882
0.568884
0.568886
0.568888
0.568888
0.56889
0.568893
0.568895
0.568897
0.568897
0.568899
0.568901
0.568903
0.568906
0.568906
0.568908
0.56891
0.568912
0.568914
0.568914
0.568917
0.568919
0.568921
0.568923
0.568923
0.568926
0.568928
0.56893
0.568932
0.568932
0.568935
0.568937
0.568939
0.568941
0.568941
0.568944
0.568946
0.568948
0.56895
0.56895
0.568953
0.568955
0.568957
0.568959
0.568959
0.568962
0.568964
0.568966
0.568968
0.568968
0.568971
0.568973
0.568975
0.568978
0.568978
0.56898
0.568982
0.568984
0.568987
0.568987
0.568989
0.568991
0.568994
0.568996
0.568996
0.568998
0.569
0.569003
0.569005
0.569005
0.569007
0.56901
0.569012
0.569014
0.569014
0.569017
0.569019
0.569021
0.569024
0.569024
0.569026
0.569028
0.569031
0.569033
0.569033
0.569035
0.569038
0.56904
0.569043
0.569043
0.569045
0.569047
0.56905
0.569052
0.569052
0.569054
0.569057
0.569059
0.569062
0.569062
0.569064
0.569066
0.569069
0.569071
0.569071
0.569073
0.569076
0.569078
0.569081
0.569081
0.569083
0.569086
0.569088
0.56909
0.56909
0.569093
0.569095
0.569098
0.5691
0.5691
0.569102
0.569105
0.569107
0.56911
0.56911
0.569112
0.569115
0.569117
0.56912
0.56912
0.569122
0.569124
0.569127
0.569129
0.569129
0.569132
0.569134
0.569137
0.569139
0.569139
0.569142
0.569144
0.569147
0.569149
0.569149
0.569152
0.569154
0.569157
0.569159
0.569159
0.569162
0.569164
0.569167
0.569169
0.569169
0.569172
0.569174
0.569177
0.569179
0.569179
0.569182
0.569184
0.569187
0.569189
0.569189
0.569192
0.569195
0.569197
0.5692
0.5692
0.569202
0.569205
0.569207
0.56921
0.56921
0.569212
0.569215
0.569217
0.56922
0.56922
0.569222
0.569225
0.569228
0.56923
0.56923
0.569233
0.569235
0.569238
0.569241
0.569241
0.569243
0.569246
0.569248
0.569251
0.569251
0.569254
0.569256
0.569259
0.569262
0.569262
0.569264
0.569267
0.56927
0.569272
0.569272
0.569275
0.569277
0.56928
0.569283
0.569283
0.569285
0.569288
0.569291
0.569293
0.569293
0.569296
0.569299
0.569301
0.569304
0.569304
0.569307
0.569309
0.569312
0.569315
0.569315
0.569317
0.56932
0.569323
0.569326
0.569326
0.569328
0.569331
0.569334
0.569336
0.569336
0.569339
0.569342
0.569344
0.569347
0.569347
0.56935
0.569353
0.569355
0.569358
0.569358
0.569361
0.569364
0.569366
0.569369
0.569369
0.569372
0.569375
0.569377
0.56938
0.56938
0.569383
0.569386
0.569388
0.569391
0.569391
0.569394
0.569397
0.5694
0.569402
0.569402
0.569405
0.569408
0.569411
0.569413
0.569413
0.569416
0.569419
0.569422
0.569425
0.569425
0.569428
0.56943
0.569433
0.569436
0.569436
0.569439
0.569442
0.569445
0.569447
0.569447
0.56945
0.569453
0.569456
0.569459
0.569459
0.569462
0.569464
0.569467
0.56947
0.56947
0.569473
0.569476
0.569479
0.569482
0.569482
0.569485
0.569487
0.56949
0.569493
0.569493
0.569496
0.569499
0.569502
0.569505
0.569505
0.569508
0.569511
0.569514
0.569516
0.569516
0.569519
0.569522
0.569525
0.569528
0.569528
0.569531
0.569534
0.569537
0.56954
0.56954
0.569543
0.569546
0.569549
0.569552
0.569552
0.569555
0.569557
0.56956
0.569563
0.569563
0.569566
0.569569
0.569572
0.569575
0.569575
0.569578
0.569581
0.569584
0.569587
0.569587
0.56959
0.569593
0.569597
0.5696
0.5696
0.569603
0.569606
0.569609
0.569612
0.569612
0.569615
0.569618
0.569621
0.569624
0.569624
0.569627
0.56963
0.569633
0.569636
0.569636
0.569639
0.569642
0.569645
0.569648
0.569648
0.569651
0.569654
0.569658
0.569661
0.569661
0.569664
0.569667
0.56967
0.569673
0.569673
0.569676
0.569679
0.569682
0.569685
0.569685
0.569689
0.569692
0.569695
0.569698
0.569698
0.569701
0.569704
0.569707
0.569711
0.569711
0.569714
0.569717
0.56972
0.569723
0.569723
0.569726
0.569729
0.569733
0.569736
0.569736
0.569739
0.569742
0.569745
0.569749
0.569749
0.569752
0.569755
0.569758
0.569761
0.569761
0.569765
0.569768
0.569771
0.569774
0.569774
0.569777
0.569781
0.569784
0.569787
0.569787
0.56979
0.569794
0.569797
0.5698
0.5698
0.569803
0.569807
0.56981
0.569813
0.569813
0.569816
0.56982
0.569823
0.569826
0.569826
0.569829
0.569833
0.569836
0.569839
0.569839
0.569843
0.569846
0.569849
0.569853
0.569853
0.569856
0.569859
0.569862
0.569866
0.569866
0.569869
0.569872
0.569876
0.569879
0.569879
0.569882
0.569886
0.569889
0.569892
0.569892
0.569896
0.569899
0.569902
0.569906
0.569906
0.569909
0.569912
0.569916
0.569919
0.569919
0.569923
0.569926
0.569929
0.569933
0.569933
0.569936
0.56994
0.569943
0.569947
0.569947
0.56995
0.569953
0.569957
0.56996
0.56996
0.569964
0.569967
0.569971
0.569974
0.569974
0.569978
0.569981
0.569985
0.569988
0.569988
0.569991
0.569995
0.569998
0.570002
0.570002
0.570005
0.570009
0.570012
0.570016
0.570016
0.570019
0.570023
0.570026
0.57003
0.57003
0.570033
0.570037
0.57004
0.570044
0.570044
0.570047
0.570051
0.570055
0.570058
0.570058
0.570062
0.570065
0.570069
0.570072
0.570072
0.570076
0.570079
0.570083
0.570087
0.570087
0.57009
0.570094
0.570097
0.570101
0.570101
0.570105
0.570108
0.570112
0.570115
0.570115
0.570119
0.570123
0.570126
0.57013
0.57013
0.570133
0.570137
0.570141
0.570144
0.570144
0.570148
0.570152
0.570155
0.570159
0.570159
0.570163
0.570166
0.57017
0.570174
0.570174
0.570177
0.570181
0.570185
0.570188
0.570188
0.570192
0.570196
0.5702
0.570203
0.570203
0.570207
0.570211
0.570214
0.570218
0.570218
0.570222
0.570226
0.570229
0.570233
0.570233
0.570237
0.570241
0.570244
0.570248
0.570248
0.570252
0.570256
0.570259
0.570263
0.570263
0.570267
0.570271
0.570274
0.570278
0.570278
0.570282
0.570286
0.57029
0.570293
0.570293
0.570297
0.570301
0.570305
0.570309
0.570309
0.570312
0.570316
0.57032
0.570324
0.570324
0.570328
0.570332
0.570336
0.57034
0.57034
0.570344
0.570347
0.570351
0.570355
0.570355
0.570359
0.570363
0.570367
0.570371
0.570371
0.570375
0.570379
0.570383
0.570386
0.570386
0.57039
0.570394
0.570398
0.570402
0.570402
0.570406
0.57041
0.570414
0.570418
0.570418
0.570422
0.570426
0.57043
0.570434
0.570434
0.570438
0.570442
0.570446
0.57045
0.57045
0.570454
0.570458
0.570462
0.570466
0.570466
0.57047
0.570474
0.570478
0.570482
0.570482
0.570486
0.57049
0.570494
0.570498
0.570498
0.570502
0.570506
0.57051
0.570514
0.570514
0.570518
0.570523
0.570527
0.570531
0.570531
0.570535
0.570539
0.570543
0.570547
0.570547
0.570551
0.570555
0.570559
0.570564
0.570564
0.570568
0.570572
0.570576
0.57058
0.57058
0.570584
0.570588
0.570593
0.570597
0.570597
0.570601
0.570605
0.570609
0.570613
0.570613
0.570618
0.570622
0.570626
0.57063
0.57063
0.570634
0.570639
0.570643
0.570647
0.570647
0.570651
0.570655
0.57066
0.570664
0.570664
0.570668
0.570672
0.570677
0.570681
0.570681
0.570685
0.570689
0.570693
0.570698
0.570698
0.570702
0.570706
0.570711
0.570715
0.570715
0.570719
0.570724
0.570728
0.570732
0.570732
0.570737
0.570741
0.570745
0.57075
0.57075
0.570754
0.570758
0.570763
0.570767
0.570767
0.570772
0.570776
0.57078
0.570785
0.570785
0.570789
0.570793
0.570798
0.570802
0.570802
0.570807
0.570811
0.570815
0.57082
0.57082
0.570824
0.570829
0.570833
0.570838
0.570838
0.570842
0.570847
0.570851
0.570855
0.570855
0.57086
0.570864
0.570869
0.570873
0.570873
0.570878
0.570882
0.570887
0.570891
0.570891
0.570896
0.5709
0.570905
0.570909
0.570909
0.570914
0.570918
0.570923
0.570928
0.570928
0.570932
0.570937
0.570941
0.570946
0.570946
0.57095
0.570955
0.570959
0.570964
0.570964
0.570969
0.570973
0.570978
0.570982
0.570982
0.570987
0.570992
0.570996
0.571001
0.571001
0.571006
0.57101
0.571015
0.571019
0.571019
0.571024
0.571029
0.571033
0.571038
0.571038
0.571043
0.571047
0.571052
0.571057
0.571057
0.571062
0.571066
0.571071
0.571076
0.571076
0.57108
0.571085
0.57109
0.571094
0.571094
0.571099
0.571104
0.571109
0.571113
0.571113
0.571118
0.571123
0.571128
0.571132
0.571132
0.571137
0.571142
0.571147
0.571152
0.571152
0.571156
0.571161
0.571166
0.571171
0.571171
0.571176
0.571181
0.571186
0.57119
0.57119
0.571195
0.5712
0.571205
0.57121
0.57121
0.571215
0.57122
0.571225
0.571229
0.571229
0.571234
0.571239
0.571244
0.571249
0.571249
0.571254
0.571259
0.571264
0.571269
0.571269
0.571274
0.571279
0.571284
0.571289
0.571289
0.571294
0.571299
0.571304
0.571309
0.571309
0.571314
0.571319
0.571324
0.571329
0.571329
0.571334
0.571339
0.571344
0.571349
0.571349
0.571354
0.571359
0.571364
0.571369
0.571369
0.571374
0.571379
0.571384
0.571389
0.571389
0.571394
0.571399
0.571404
0.57141
0.57141
0.571415
0.57142
0.571425
0.57143
0.57143
0.571435
0.57144
0.571445
0.571451
0.571451
0.571456
0.571461
0.571466
0.571471
0.571471
0.571476
0.571482
0.571487
0.571492
0.571492
0.571497
0.571502
0.571508
0.571513
0.571513
0.571518
0.571523
0.571528
0.571534
0.571534
0.571539
0.571544
0.571549
0.571555
0.571555
0.57156
0.571565
0.57157
0.571576
0.571576
0.571581
0.571586
0.571591
0.571597
0.571597
0.571602
0.571608
0.571613
0.571618
0.571618
0.571624
0.571629
0.571635
0.57164
0.57164
0.571645
0.571651
0.571656
0.571662
0.571662
0.571667
0.571672
0.571678
0.571683
0.571683
0.571689
0.571694
0.5717
0.571705
0.571705
0.57171
0.571716
0.571721
0.571727
0.571727
0.571732
0.571738
0.571743
0.571749
0.571749
0.571754
0.57176
0.571765
0.571771
0.571771
0.571776
0.571782
0.571787
0.571793
0.571793
0.571799
0.571804
0.57181
0.571815
0.571815
0.571821
0.571826
0.571832
0.571838
0.571838
0.571843
0.571849
0.571854
0.57186
0.57186
0.571866
0.571871
0.571877
0.571883
0.571883
0.571888
0.571894
0.5719
0.571905
0.571905
0.571911
0.571917
0.571922
0.571928
0.571928
0.571934
0.57194
0.571945
0.571951
0.571951
0.571957
0.571963
0.571968
0.571974
0.571974
0.57198
0.571986
0.571991
0.571997
0.571997
0.572003
0.572009
0.572014
0.57202
0.57202
0.572026
0.572032
0.572038
0.572043
0.572043
0.572049
0.572055
0.572061
0.572067
0.572067
0.572073
0.572079
0.572085
0.572091
0.572091
0.572096
0.572102
0.572108
0.572114
0.572114
0.57212
0.572126
0.572132
0.572138
0.572138
0.572144
0.57215
0.572156
0.572162
0.572162
0.572168
0.572174
0.57218
0.572186
0.572186
0.572192
0.572198
0.572204
0.57221
0.57221
0.572216
0.572222
0.572229
0.572235
0.572235
0.572241
0.572247
0.572253
0.572259
0.572259
0.572265
0.572271
0.572277
0.572283
0.572283
0.57229
0.572296
0.572302
0.572308
0.572308
0.572314
0.57232
0.572327
0.572333
0.572333
0.572339
0.572345
0.572351
0.572358
0.572358
0.572364
0.57237
0.572376
0.572382
0.572382
0.572389
0.572395
0.572401
0.572408
0.572408
0.572414
0.57242
0.572426
0.572433
0.572433
0.572439
0.572445
0.572452
0.572458
0.572458
0.572464
0.572471
0.572477
0.572483
0.572483
0.57249
0.572496
0.572502
0.572509
0.572509
0.572515
0.572522
0.572528
0.572534
0.572534
0.572541
0.572547
0.572554
0.57256
0.57256
0.572566
0.572573
0.572579
0.572586
0.572586
0.572593
0.572599
0.572606
0.572612
0.572612
0.572619
0.572625
0.572632
0.572638
0.572638
0.572645
0.572652
0.572658
0.572665
0.572665
0.572671
0.572678
0.572685
0.572691
0.572691
0.572698
0.572705
0.572711
0.572718
0.572718
0.572725
0.572731
0.572738
0.572745
0.572745
0.572751
0.572758
0.572765
0.572771
0.572771
0.572778
0.572785
0.572792
0.572798
0.572798
0.572805
0.572812
0.572819
0.572825
0.572825
0.572832
0.572839
0.572846
0.572853
0.572853
0.572859
0.572866
0.572873
0.57288
0.57288
0.572887
0.572894
0.5729
0.572907
0.572907
0.572914
0.572921
0.572928
0.572935
0.572935
0.572942
0.572949
0.572956
0.572963
0.572963
0.57297
0.572976
0.572983
0.57299
0.57299
0.572997
0.573004
0.573011
0.573018
0.573018
0.573025
0.573032
0.573039
0.573046
0.573046
0.573053
0.57306
0.573067
0.573074
0.573074
0.573081
0.573089
0.573096
0.573103
0.573103
0.57311
0.573117
0.573124
0.573131
0.573131
0.573139
0.573146
0.573153
0.57316
0.57316
0.573167
0.573175
0.573182
0.573189
0.573189
0.573196
0.573204
0.573211
0.573218
0.573218
0.573225
0.573233
0.57324
0.573247
0.573247
0.573255
0.573262
0.573269
0.573277
0.573277
0.573284
0.573291
0.573299
0.573306
0.573306
0.573313
0.573321
0.573328
0.573335
0.573335
0.573343
0.57335
0.573358
0.573365
0.573365
0.573373
0.57338
0.573387
0.573395
0.573395
0.573402
0.57341
0.573417
0.573425
0.573425
0.573432
0.57344
0.573447
0.573455
0.573455
0.573462
0.57347
0.573478
0.573485
0.573485
0.573493
0.5735
0.573508
0.573516
0.573516
0.573523
0.573531
0.573538
0.573546
0.573546
0.573554
0.573561
0.573569
0.573577
0.573577
0.573584
0.573592
0.5736
0.573608
0.573608
0.573615
0.573623
0.573631
0.573638
0.573638
0.573646
0.573654
0.573662
0.573669
0.573669
0.573677
0.573685
0.573693
0.573701
0.573701
0.573709
0.573716
0.573724
0.573732
0.573732
0.57374
0.573748
0.573756
0.573764
0.573764
0.573772
0.57378
0.573788
0.573796
0.573796
0.573804
0.573812
0.57382
0.573828
0.573828
0.573836
0.573844
0.573852
0.57386
0.57386
0.573868
0.573876
0.573884
0.573892
0.573892
0.5739
0.573908
0.573917
0.573925
0.573925
0.573933
0.573941
0.573949
0.573957
0.573957
0.573965
0.573974
0.573982
0.57399
0.57399
0.573998
0.574006
0.574015
0.574023
0.574023
0.574031
0.574039
0.574048
0.574056
0.574056
0.574064
0.574072
0.574081
0.574089
0.574089
0.574097
0.574106
0.574114
0.574122
0.574122
0.574131
0.574139
0.574148
0.574156
0.574156
0.574164
0.574173
0.574181
0.57419
0.57419
0.574198
0.574206
0.574215
0.574223
0.574223
0.574232
0.57424
0.574249
0.574257
0.574257
0.574266
0.574274
0.574283
0.574291
0.574291
0.5743
0.574308
0.574317
0.574326
0.574326
0.574334
0.574343
0.574352
0.574361
0.574361
0.574369
0.574378
0.574387
0.574395
0.574395
0.574404
0.574413
0.574422
0.57443
0.57443
0.574439
0.574448
0.574457
0.574465
0.574465
0.574474
0.574483
0.574492
0.574501
0.574501
0.57451
0.574518
0.574527
0.574536
0.574536
0.574545
0.574554
0.574563
0.574572
0.574572
0.574581
0.57459
0.574599
0.574608
0.574608
0.574617
0.574626
0.574635
0.574644
0.574644
0.574653
0.574662
0.574671
0.57468
0.57468
0.574689
0.574698
0.574707
0.574716
0.574716
0.574725
0.574734
0.574743
0.574753
0.574753
0.574762
0.574771
0.57478
0.574789
0.574789
0.574798
0.574808
0.574817
0.574826
0.574826
0.574835
0.574844
0.574854
0.574863
0.574863
0.574872
0.574881
0.574891
0.5749
0.5749
0.574909
0.574919
0.574928
0.574937
0.574937
0.574947
0.574956
0.574966
0.574975
0.574975
0.574985
0.574994
0.575004
0.575013
0.575013
0.575023
0.575032
0.575042
0.575051
0.575051
0.575061
0.57507
0.57508
0.575089
0.575089
0.575099
0.575109
0.575118
0.575128
0.575128
0.575138
0.575147
0.575157
0.575167
0.575167
0.575176
0.575186
0.575196
0.575205
0.575205
0.575215
0.575225
0.575235
0.575244
0.575244
0.575254
0.575264
0.575274
0.575284
0.575284
0.575293
0.575303
0.575313
0.575323
0.575323
0.575333
0.575343
0.575353
0.575362
0.575362
0.575372
0.575382
0.575392
0.575402
0.575402
0.575412
0.575422
0.575432
0.575442
0.575442
0.575452
0.575462
0.575472
0.575482
0.575482
0.575492
0.575502
0.575513
0.575523
0.575523
0.575533
0.575543
0.575553
0.575563
0.575563
0.575573
0.575583
0.575593
0.575604
0.575604
0.575614
0.575624
0.575634
0.575645
0.575645
0.575655
0.575665
0.575676
0.575686
0.575686
0.575697
0.575707
0.575717
0.575728
0.575728
0.575738
0.575749
0.575759
0.57577
0.57577
0.57578
0.57579
0.575801
0.575811
0.575811
0.575822
0.575832
0.575843
0.575854
0.575854
0.575864
0.575875
0.575885
0.575896
0.575896
0.575906
0.575917
0.575928
0.575938
0.575938
0.575949
0.57596
0.57597
0.575981
0.575981
0.575992
0.576003
0.576013
0.576024
0.576024
0.576035
0.576046
0.576056
0.576067
0.576067
0.576078
0.576089
0.5761
0.576111
0.576111
0.576122
0.576132
0.576143
0.576154
0.576154
0.576165
0.576176
0.576187
0.576198
0.576198
0.576209
0.57622
0.576231
0.576242
0.576242
0.576253
0.576264
0.576275
0.576286
0.576286
0.576297
0.576308
0.576319
0.57633
0.57633
0.576342
0.576353
0.576364
0.576375
0.576375
0.576387
0.576398
0.576409
0.576421
0.576421
0.576432
0.576443
0.576455
0.576466
0.576466
0.576477
0.576489
0.5765
0.576511
0.576511
0.576523
0.576534
0.576546
0.576557
0.576557
0.576569
0.57658
0.576592
0.576603
0.576603
0.576615
0.576626
0.576638
0.576649
0.576649
0.576661
0.576673
0.576684
0.576696
0.576696
0.576707
0.576719
0.576731
0.576742
0.576742
0.576754
0.576766
0.576778
0.576789
0.576789
0.576801
0.576813
0.576825
0.576837
0.576837
0.576848
0.57686
0.576872
0.576884
0.576884
0.576896
0.576908
0.57692
0.576931
0.576931
0.576943
0.576955
0.576967
0.576979
0.576979
0.576991
0.577003
0.577015
0.577027
0.577027
0.577039
0.577051
0.577063
0.577075
0.577075
0.577088
0.5771
0.577112
0.577124
0.577124
0.577136
0.577149
0.577161
0.577173
0.577173
0.577185
0.577198
0.57721
0.577223
0.577223
0.577235
0.577247
0.57726
0.577272
0.577272
0.577285
0.577297
0.577309
0.577322
0.577322
0.577334
0.577347
0.577359
0.577372
0.577372
0.577384
0.577397
0.577409
0.577422
0.577422
0.577435
0.577447
0.57746
0.577473
0.577473
0.577485
0.577498
0.577511
0.577523
0.577523
0.577536
0.577549
0.577562
0.577574
0.577574
0.577587
0.5776
0.577613
0.577626
0.577626
0.577638
0.577651
0.577664
0.577677
0.577677
0.57769
0.577703
0.577716
0.577729
0.577729
0.577742
0.577755
0.577768
0.577781
0.577781
0.577794
0.577807
0.57782
0.577833
0.577833
0.577846
0.577859
0.577872
0.577885
0.577885
0.577899
0.577912
0.577925
0.577938
0.577938
0.577952
0.577965
0.577978
0.577992
0.577992
0.578005
0.578019
0.578032
0.578045
0.578045
0.578059