<?xml version="1.0"?>
<VTKFile type="UnstructuredGrid" version="0.1" byte_order="LittleEndian">
<UnstructuredGrid>
<Piece NumberOfPoints="5000" NumberOfCells="4000">
<PointData Scalars="Reaction 0">
<DataArray type="Float32" Name="Reaction 0" format="ascii">
0.566483
0.566483
0.566483
0.566483
0.566483
0.566483
0.566483
0.566483
0.566483
0.566483
0.566483
0.566483
0.566483
0.566483
0.566483
0.566483
0.566483
0.566483
0.566483
0.566483
0.566483
0.566483
0.566483
0.566483
0.566483
0.566483
0.566483
0.566483
0.566483
0.566483
0.566483
0.566483
0.566483
0.566483
0.566483
0.566483
0.566483
0.566483
0.566484
0.566484
0.566484
0.566484
0.566484
0.566484
0.566484
0.566484
0.566484
0.566484
0.566484
0.566484
0.566484
0.566484
0.566484
0.566484
0.566484
0.566484
0.566484
0.566484
0.566484
0.566484
0.566484
0.566484
0.566484
0.566484
0.566484
0.566484
0.566484
0.566485
0.566485
0.566485
0.566485
0.566485
0.566485
0.566485
0.566485
0.566485
0.566485
0.566485
0.566485
0.566485
0.566485
0.566485
0.566485
0.566485
0.566485
0.566485
0.566485
0.566486
0.566486
0.566486
0.566486
0.566486
0.566486
0.566486
0.566486
0.566486
0.566486
0.566486
0.566486
0.566486
0.566486
0.566486
0.566486
0.566487
0.566487
0.566487
0.566487
0.566487
0.566487
0.566487
0.566487
0.566487
0.566487
0.566487
0.566487
0.566487
0.566487
0.566488
0.566488
0.566488
0.566488
0.566488
0.566488
0.566488
0.566488
0.566488
0.566488
0.566488
0.566488
0.566489
0.566489
0.566489
0.566489
0.566489
0.566489
0.566489
0.566489
0.566489
0.566489
0.566489
0.566489
0.56649
0.56649
0.56649
0.56649
0.56649
0.56649
0.56649
0.56649
0.56649
0.56649
0.566491
0.566491
0.566491
0.566491
0.566491
0.566491
0.566491
0.566491
0.566491
0.566491
0.566492
0.566492
0.566492
0.566492
0.566492
0.566492
0.566492
0.566492
0.566492
0.566492
0.566493
0.566493
0.566493
0.566493
0.566493
0.566493
0.566493
0.566493
0.566494
0.566494
0.566494
0.566494
0.566494
0.566494
0.566494
0.566494
0.566495
0.566495
0.566495
0.566495
0.566495
0.566495
0.566495
0.566495
0.566495
0.566496
0.566496
0.566496
0.566496
0.566496
0.566496
0.566496
0.566497
0.566497
0.566497
0.566497
0.566497
0.566497
0.566497
0.566497
0.566498
0.566498
0.566498
0.566498
0.566498
0.566498
0.566499
0.566499
0.566499
0.566499
0.566499
0.566499
0.566499
0.5665
0.5665
0.5665
0.5665
0.5665
0.5665
0.5665
0.566501
0.566501
0.566501
0.566501
0.566501
0.566501
0.566502
0.566502
0.566502
0.566502
0.566502
0.566502
0.566502
0.566503
0.566503
0.566503
0.566503
0.566503
0.566504
0.566504
0.566504
0.566504
0.566504
0.566504
0.566504
0.566505
0.566505
0.566505
0.566505
0.566505
0.566505
0.566506
0.566506
0.566506
0.566506
0.566506
0.566506
0.566507
0.566507
0.566507
0.566507
0.566507
0.566508
0.566508
0.566508
0.566508
0.566508
0.566509
0.566509
0.566509
0.566509
0.566509
0.566509
0.56651
0.56651
0.56651
0.56651
0.56651
0.566511
0.566511
0.566511
0.566511
0.566511
0.566512
0.566512
0.566512
0.566512
0.566512
0.566513
0.566513
0.566513
0.566513
0.566513
0.566514
0.566514
0.566514
0.566514
0.566514
0.566515
0.566515
0.566515
0.566515
0.566515
0.566516
0.566516
0.566516
0.566516
0.566516
0.566517
0.566517
0.566517
0.566517
0.566517
0.566518
0.566518
0.566518
0.566518
0.566519
0.566519
0.566519
0.566519
0.566519
0.56652
0.56652
0.56652
0.56652
0.56652
0.566521
0.566521
0.566521
0.566521
0.566522
0.566522
0.566522
0.566522
0.566522
0.566523
0.566523
0.566523
0.566523
0.566524
0.566524
0.566524
0.566524
0.566524
0.566525
0.566525
0.566525
0.566526
0.566526
0.566526
0.566526
0.566526
0.566527
0.566527
0.566527
0.566527
0.566528
0.566528
0.566528
0.566528
0.566529
0.566529
0.566529
0.566529
0.56653
0.56653
0.56653
0.56653
0.56653
0.566531
0.566531
0.566531
0.566532
0.566532
0.566532
0.566532
0.566533
0.566533
0.566533
0.566533
0.566534
0.566534
0.566534
0.566534
0.566535
0.566535
0.566535
0.566536
0.566536
0.566536
0.566536
0.566537
0.566537
0.566537
0.566537
0.566538
0.566538
0.566538
0.566538
0.566539
0.566539
0.566539
0.56654
0.56654
0.56654
0.56654
0.566541
0.566541
0.566541
0.566541
0.566542
0.566542
0.566542
0.566542
0.566543
0.566543
0.566544
0.566544
0.566544
0.566544
0.566545
0.566545
0.566545
0.566545
0.566546
0.566546
0.566546
0.566547
0.566547
0.566547
0.566548
0.566548
0.566548
0.566548
0.566549
0.566549
0.566549
0.56655
0.56655
0.56655
0.56655
0.566551
0.566551
0.566551
0.566552
0.566552
0.566552
0.566553
0.566553
0.566553
0.566554
0.566554
0.566554
0.566554
0.566555
0.566555
0.566555
0.566556
0.566556
0.566556
0.566557
0.566557
0.566557
0.566557
0.566558
0.566558
0.566559
0.566559
0.566559
0.566559
0.56656
0.56656
0.566561
0.566561
0.566561
0.566561
0.566562
0.566562
0.566562
0.566563
0.566563
0.566563
0.566564
0.566564
0.566564
0.566565
0.566565
0.566566
0.566566
0.566566
0.566566
0.566567
0.566567
0.566567
0.566568
0.566568
0.566569
0.566569
0.566569
0.566569
0.56657
0.56657
0.566571
0.566571
0.566571
0.566572
0.566572
0.566572
0.566572
0.566573
0.566573
0.566574
0.566574
0.566574
0.566575
0.566575
0.566575
0.566576
0.566576
0.566576
0.566577
0.566577
0.566578
0.566578
0.566578
0.566579
0.566579
0.566579
0.566579
0.56658
0.56658
0.566581
0.566581
0.566581
0.566582
0.566582
0.566583
0.566583
0.566583
0.566584
0.566584
0.566585
0.566585
0.566585
0.566585
0.566586
0.566586
0.566587
0.566587
0.566587
0.566588
0.566588
0.566589
0.566589
0.566589
0.56659
0.56659
0.566591
0.566591
0.566591
0.566592
0.566592
0.566593
0.566593
0.566593
0.566594
0.566594
0.566594
0.566594
0.566595
0.566595
0.566596
0.566596
0.566596
0.566597
0.566597
0.566598
0.566598
0.566598
0.566599
0.566599
0.5666
0.5666
0.5666
0.566601
0.566601
0.566602
0.566602
0.566602
0.566603
0.566603
0.566604
0.566604
0.566604
0.566605
0.566605
0.566606
0.566607
0.566607
0.566607
0.566608
0.566608
0.566609
0.566609
0.566609
0.56661
0.56661
0.566611
0.566611
0.566611
0.566612
0.566612
0.566613
0.566613
0.566613
0.566614
0.566614
0.566615
0.566615
0.566615
0.566616
0.566616
0.566617
0.566617
0.566618
0.566618
0.566619
0.566619
0.566619
0.56662
0.56662
0.566621
0.566621
0.566621
0.566622
0.566622
0.566623
0.566624
0.566624
0.566624
0.566625
0.566625
0.566626
0.566626
0.566626
0.566627
0.566627
0.566628
0.566628
0.566629
0.566629
0.56663
0.56663
0.56663
0.566631
0.566631
0.566632
0.566632
0.566632
0.566633
0.566634
0.566634
0.566635
0.566635
0.566635
0.566636
0.566636
0.566637
0.566637
0.566638
0.566638
0.566639
0.566639
0.566639
0.56664
0.566641
0.566641
0.566642
0.566642
0.566642
0.566643
0.566643
0.566644
0.566644
0.566645
0.566645
0.566646
0.566646
0.566646
0.566647
0.566648
0.566648
0.566649
0.566649
0.566649
0.56665
0.566651
0.566651
0.566651
0.566652
0.566652
0.566653
0.566654
0.566654
0.566654
0.566655
0.566656
0.566656
0.566656
0.566657
0.566657
0.566658
0.566659
0.566659
0.566659
0.56666
0.56666
0.566661
0.566661
0.566662
0.566662
0.566663
0.566664
0.566664
0.566664
0.566665
0.566665
0.566666
0.566666
0.566667
0.566667
0.566668
0.566669
0.566669
0.566669
0.56667
0.566671
0.566671
0.566671
0.566672
0.566672
0.566673
0.566674
0.566674
0.566674
0.566675
0.566676
0.566676
0.566676
0.566677
0.566678
0.566678
0.566679
0.566679
0.56668
0.56668
0.566681
0.566682
0.566682
0.566682
0.566683
0.566684
0.566684
0.566684
0.566685
0.566686
0.566686
0.566687
0.566687
0.566688
0.566688
0.566689
0.56669
0.56669
0.56669
0.566691
0.566692
0.566692
0.566692
0.566693
0.566694
0.566694
0.566695
0.566695
0.566696
0.566696
0.566697
0.566698
0.566698
0.566698
0.566699
0.5667
0.566701
0.566701
0.566701
0.566702
0.566703
0.566703
0.566703
0.566704
0.566705
0.566705
0.566706
0.566706
0.566707
0.566708
0.566708
0.566709
0.566709
0.56671
0.56671
0.566711
0.566712
0.566712
0.566713
0.566713
0.566714
0.566715
0.566715
0.566715
0.566716
0.566717
0.566718
0.566718
0.566718
0.566719
0.56672
0.566721
0.566721
0.566721
0.566722
0.566723
0.566723
0.566723
0.566724
0.566725
0.566726
0.566726
0.566726
0.566727
0.566728
0.566729
0.566729
0.566729
0.56673
0.566731
0.566732
0.566732
0.566732
0.566733
0.566734
0.566735
0.566735
0.566735
0.566736
0.566737
0.566738
0.566738
0.566738
0.566739
0.56674
0.566741
0.566741
0.566741
0.566742
0.566743
0.566744
0.566744
0.566744
0.566745
0.566746
0.566747
0.566748
0.566748
0.566748
0.566749
0.56675
0.566751
0.566751
0.566751
0.566752
0.566753
0.566754
0.566754
0.566755
0.566755
0.566756
0.566757
0.566757
0.566758
0.566758
0.566759
0.56676
0.56676
0.566761
0.566762
0.566762
0.566763
0.566763
0.566764
0.566765
0.566766
0.566766
0.566766
0.566767
0.566768
0.566769
0.56677
0.56677
0.56677
0.566771
0.566772
0.566773
0.566773
0.566774
0.566775
0.566775
0.566776
0.566776
0.566777
0.566778
0.566779
0.566779
0.566779
0.56678
0.566781
0.566782
0.566783
0.566783
0.566784
0.566784
0.566785
0.566786
0.566786
0.566787
0.566788
0.566789
0.566789
0.566789
0.56679
0.566791
0.566792
0.566793
0.566793
0.566794
0.566794
0.566795
0.566796
0.566796
0.566797
0.566798
0.566799
0.5668
0.5668
0.5668
0.566801
0.566802
0.566803
0.566803
0.566804
0.566805
0.566806
0.566806
0.566806
0.566807
0.566808
0.566809
0.56681
0.56681
0.566811
0.566812
0.566812
0.566813
0.566813
0.566814
0.566815
0.566816
0.566817
0.566817
0.566818
0.566819
0.566819
0.56682
0.56682
0.566821
0.566822
0.566823
0.566824
0.566824
0.566825
0.566826
0.566827
0.566827
0.566827
0.566828
0.566829
0.56683
0.566831
0.566831
0.566832
0.566833
0.566834
0.566835
0.566835
0.566836
0.566836
0.566837
0.566838
0.566838
0.566839
0.56684
0.566841
0.566842
0.566842
0.566843
0.566844
0.566845
0.566846
0.566846
0.566847
0.566847
0.566848
0.566849
0.566849
0.56685
0.566851
0.566852
0.566853
0.566853
0.566854
0.566855
0.566856
0.566857
0.566857
0.566858
0.566859
0.56686
0.56686
0.56686
0.566861
0.566862
0.566863
0.566864
0.566864
0.566865
0.566866
0.566867
0.566868
0.566868
0.566869
0.56687
0.566871
0.566872
0.566872
0.566873
0.566874
0.566875
0.566876
0.566876
0.566877
0.566878
0.566879
0.56688
0.56688
0.566881
0.566882
0.566882
0.566883
0.566883
0.566884
0.566885
0.566886
0.566887
0.566887
0.566888
0.566889
0.56689
0.566891
0.566891
0.566892
0.566893
0.566894
0.566895
0.566895
0.566896
0.566897
0.566898
0.566899
0.566899
0.5669
0.566901
0.566902
0.566903
0.566903
0.566904
0.566905
0.566906
0.566907
0.566907
0.566908
0.566909
0.56691
0.566911
0.566911
0.566912
0.566913
0.566914
0.566915
0.566915
0.566916
0.566917
0.566918
0.566919
0.566919
0.56692
0.566921
0.566923
0.566924
0.566924
0.566925
0.566926
0.566927
0.566928
0.566928
0.566929
0.56693
0.566931
0.566932
0.566932
0.566933
0.566934
0.566935
0.566936
0.566936
0.566937
0.566938
0.566939
0.56694
0.56694
0.566941
0.566942
0.566943
0.566944
0.566944
0.566945
0.566947
0.566948
0.566949
0.566949
0.56695
0.566951
0.566952
0.566953
0.566953
0.566954
0.566955
0.566956
0.566957
0.566957
0.566958
0.566959
0.56696
0.566961
0.566961
0.566963
0.566964
0.566965
0.566966
0.566966
0.566967
0.566968
0.566969
0.56697
0.56697
0.566971
0.566972
0.566973
0.566975
0.566975
0.566976
0.566977
0.566978
0.566979
0.566979
0.56698
0.566981
0.566982
0.566983
0.566983
0.566984
0.566986
0.566987
0.566988
0.566988
0.566989
0.56699
0.566991
0.566992
0.566992
0.566993
0.566994
0.566996
0.566997
0.566997
0.566998
0.566999
0.567
0.567001
0.567001
0.567002
0.567004
0.567005
0.567006
0.567006
0.567007
0.567008
0.567009
0.56701
0.56701
0.567012
0.567013
0.567014
0.567015
0.567015
0.567016
0.567017
0.567018
0.56702
0.56702
0.567021
0.567022
0.567023
0.567024
0.567024
0.567025
0.567027
0.567028
0.567029
0.567029
0.56703
0.567031
0.567032
0.567034
0.567034
0.567035
0.567036
0.567037
0.567038
0.567038
0.567039
0.567041
0.567042
0.567043
0.567043
0.567044
0.567045
0.567046
0.567048
0.567048
0.567049
0.56705
0.567051
0.567052
0.567052
0.567054
0.567055
0.567056
0.567057
0.567057
0.567058
0.567059
0.567061
0.567062
0.567062
0.567063
0.567064
0.567066
0.567067
0.567067
0.567068
0.567069
0.567071
0.567072
0.567072
0.567073
0.567074
0.567075
0.567077
0.567077
0.567078
0.567079
0.56708
0.567082
0.567082
0.567083
0.567084
0.567085
0.567087
0.567087
0.567088
0.567089
0.56709
0.567092
0.567092
0.567093
0.567094
0.567095
0.567097
0.567097
0.567098
0.567099
0.5671
0.567102
0.567102
0.567103
0.567104
0.567105
0.567107
0.567107
0.567108
0.567109
0.56711
0.567112
0.567112
0.567113
0.567114
0.567115
0.567117
0.567117
0.567118
0.567119
0.567121
0.567122
0.567122
0.567123
0.567124
0.567126
0.567127
0.567127
0.567128
0.56713
0.567131
0.567132
0.567132
0.567133
0.567135
0.567136
0.567137
0.567137
0.567139
0.56714
0.567141
0.567143
0.567143
0.567144
0.567145
0.567146
0.567148
0.567148
0.567149
0.56715
0.567152
0.567153
0.567153
0.567154
0.567156
0.567157
0.567158
0.567158
0.56716
0.567161
0.567162
0.567164
0.567164
0.567165
0.567166
0.567168
0.567169
0.567169
0.56717
0.567172
0.567173
0.567174
0.567174
0.567176
0.567177
0.567178
0.56718
0.56718
0.567181
0.567183
0.567184
0.567185
0.567185
0.567187
0.567188
0.567189
0.567191
0.567191
0.567192
0.567193
0.567195
0.567196
0.567196
0.567198
0.567199
0.5672
0.567202
0.567202
0.567203
0.567204
0.567206
0.567207
0.567207
0.567209
0.56721
0.567211
0.567213
0.567213
0.567214
0.567216
0.567217
0.567218
0.567218
0.56722
0.567221
0.567223
0.567224
0.567224
0.567225
0.567227
0.567228
0.56723
0.56723
0.567231
0.567232
0.567234
0.567235
0.567235
0.567237
0.567238
0.567239
0.567241
0.567241
0.567242
0.567244
0.567245
0.567247
0.567247
0.567248
0.567249
0.567251
0.567252
0.567252
0.567254
0.567255
0.567256
0.567258
0.567258
0.567259
0.567261
0.567262
0.567264
0.567264
0.567265
0.567267
0.567268
0.56727
0.56727
0.567271
0.567273
0.567274
0.567276
0.567276
0.567277
0.567279
0.56728
0.567281
0.567281
0.567283
0.567284
0.567286
0.567287
0.567287
0.567289
0.56729
0.567292
0.567293
0.567293
0.567295
0.567296
0.567298
0.567299
0.567299
0.567301
0.567302
0.567304
0.567305
0.567305
0.567307
0.567308
0.56731
0.567311
0.567311
0.567313
0.567314
0.567316
0.567317
0.567317
0.567319
0.56732
0.567322
0.567323
0.567323
0.567325
0.567326
0.567328
0.56733
0.56733
0.567331
0.567333
0.567334
0.567336
0.567336
0.567337
0.567339
0.56734
0.567342
0.567342
0.567343
0.567345
0.567346
0.567348
0.567348
0.56735
0.567351
0.567353
0.567354
0.567354
0.567356
0.567357
0.567359
0.56736
0.56736
0.567362
0.567364
0.567365
0.567367
0.567367
0.567368
0.56737
0.567371
0.567373
0.567373
0.567375
0.567376
0.567378
0.567379
0.567379
0.567381
0.567383
0.567384
0.567386
0.567386
0.567387
0.567389
0.56739
0.567392
0.567392
0.567394
0.567395
0.567397
0.567399
0.567399
0.5674
0.567402
0.567403
0.567405
0.567405
0.567407
0.567408
0.56741
0.567411
0.567411
0.567413
0.567415
0.567416
0.567418
0.567418
0.56742
0.567421
0.567423
0.567424
0.567424
0.567426
0.567428
0.567429
0.567431
0.567431
0.567433
0.567434
0.567436
0.567438
0.567438
0.567439
0.567441
0.567443
0.567444
0.567444
0.567446
0.567448
0.567449
0.567451
0.567451
0.567453
0.567454
0.567456
0.567457
0.567457
0.567459
0.567461
0.567462
0.567464
0.567464
0.567466
0.567467
0.567469
0.567471
0.567471
0.567473
0.567474
0.567476
0.567478
0.567478
0.567479
0.567481
0.567483
0.567485
0.567485
0.567486
0.567488
0.56749
0.567491
0.567491
0.567493
0.567495
0.567497
0.567498
0.567498
0.5675
0.567502
0.567504
0.567505
0.567505
0.567507
0.567509
0.56751
0.567512
0.567512
0.567514
0.567516
0.567517
0.567519
0.567519
0.567521
0.567523
0.567524
0.567526
0.567526
0.567528
0.56753
0.567531
0.567533
0.567533
0.567535
0.567537
0.567538
0.56754
0.56754
0.567542
0.567544
0.567546
0.567547
0.567547
0.567549
0.567551
0.567553
0.567554
0.567554
0.567556
0.567558
0.56756
0.567562
0.567562
0.567563
0.567565
0.567567
0.567569
0.567569
0.567571
0.567572
0.567574
0.567576
0.567576
0.567578
0.56758
0.567581
0.567583
0.567583
0.567585
0.567587
0.567589
0.567591
0.567591
0.567592
0.567594
0.567596
0.567598
0.567598
0.5676
0.567601
0.567603
0.567605
0.567605
0.567607
0.567609
0.567611
0.567613
0.567613
0.567614
0.567616
0.567618
0.56762
0.56762
0.567622
0.567624
0.567626
0.567627
0.567627
0.567629
0.567631
0.567633
0.567635
0.567635
0.567637
0.567639
0.567641
0.567642
0.567642
0.567644
0.567646
0.567648
0.56765
0.56765
0.567652
0.567654
0.567656
0.567657
0.567657
0.567659
0.567661
0.567663
0.567665
0.567665
0.567667
0.567669
0.567671
0.567673
0.567673
0.567675
0.567676
0.567678
0.56768
0.56768
0.567682
0.567684
0.567686
0.567688
0.567688
0.56769
0.567692
0.567694
0.567696
0.567696
0.567698
0.5677
0.567702
0.567704
0.567704
0.567706
0.567708
0.56771
0.567711
0.567711
0.567713
0.567715
0.567717
0.567719
0.567719
0.567721
0.567723
0.567725
0.567727
0.567727
0.567729
0.567731
0.567733
0.567735
0.567735
0.567737
0.567739
0.567741
0.567743
0.567743
0.567745
0.567747
0.567749
0.567751
0.567751
0.567753
0.567755
0.567757
0.567759
0.567759
0.567761
0.567763
0.567765
0.567767
0.567767
0.567769
0.567771
0.567773
0.567775
0.567775
0.567777
0.567779
0.567781
0.567783
0.567783
0.567785
0.567787
0.56779
0.567792
0.567792
0.567794
0.567796
0.567798
0.5678
0.5678
0.567802
0.567804
0.567806
0.567808
0.567808
0.56781
0.567812
0.567814
0.567816
0.567816
0.567818
0.56782
0.567822
0.567825
0.567825
0.567827
0.567829
0.567831
0.567833
0.567833
0.567835
0.567837
0.567839
0.567841
0.567841
0.567843
0.567846
0.567848
0.56785
0.56785
0.567852
0.567854
0.567856
0.567858
0.567858
0.56786
0.567862
0.567865
0.567867
0.567867
0.567869
0.567871
0.567873
0.567875
0.567875
0.567877
0.567879
0.567882
0.567884
0.567884
0.567886
0.567888
0.56789
0.567892
0.567892
0.567894
0.567897
0.567899
0.567901
0.567901
0.567903
0.567905
0.567907
0.567909
0.567909
0.567912
0.567914
0.567916
0.567918
0.567918
0.56792
0.567923
0.567925
0.567927
0.567927
0.567929
0.567931
0.567934
0.567936
0.567936
0.567938
0.56794
0.567943
0.567945
0.567945
0.567947
0.567949
0.567951
0.567954
0.567954
0.567956
0.567958
0.56796
0.567963
0.567963
0.567965
0.567967
0.567969
0.567972
0.567972
0.567974
0.567976
0.567978
0.567981
0.567981
0.567983
0.567985
0.567987
0.56799
0.56799
0.567992
0.567994
0.567996
0.567999
0.567999
0.568001
0.568003
0.568005
0.568008
0.568008
0.56801
0.568012
0.568015
0.568017
0.568017
0.568019
0.568021
0.568024
0.568026
0.568026
0.568028
0.568031
0.568033
0.568035
0.568035
0.568038
0.56804
0.568042
0.568045
0.568045
0.568047
0.568049
0.568052
0.568054
0.568054
0.568056
0.568059
0.568061
0.568063
0.568063
0.568066
0.568068
0.56807
0.568073
0.568073
0.568075
0.568077
0.56808
0.568082
0.568082
0.568084
0.568087
0.568089
0.568091
0.568091
0.568094
0.568096
0.568099
0.568101
0.568101
0.568103
0.568106
0.568108
0.568111
0.568111
0.568113
0.568115
0.568118
0.56812
0.56812
0.568123
0.568125
0.568127
0.56813
0.56813
0.568132
0.568135
0.568137
0.568139
0.568139
0.568142
0.568144
0.568147
0.568149
0.568149
0.568151
0.568154
0.568156
0.568159
0.568159
0.568161
0.568164
0.568166
0.568169
0.568169
0.568171
0.568174
0.568176
0.568179
0.568179
0.568181
0.568183
0.568186
0.568188
0.568188
0.568191
0.568193
0.568196
0.568198
0.568198
0.568201
0.568203
0.568206
0.568208
0.568208
0.568211
0.568213
0.568216
0.568218
0.568218
0.568221
0.568223
0.568226
0.568228
0.568228
0.568231
0.568234
0.568236
0.568239
0.568239
0.568241
0.568244
0.568246
0.568249
0.568249
0.568251
0.568254
0.568256
0.568259
0.568259
0.568261
0.568264
0.568267
0.568269
0.568269
0.568272
0.568274
0.568277
0.568279
0.568279
0.568282
0.568285
0.568287
0.56829
0.56829
0.568292
0.568295
0.568298
0.5683
0.5683
0.568303
0.568305
0.568308
0.568311
0.568311
0.568313
0.568316
0.568318
0.568321
0.568321
0.568324
0.568326
0.568329
0.568332
0.568332
0.568334
0.568337
0.568339
0.568342
0.568342
0.568345
0.568347
0.56835
0.568353
0.568353
0.568355
0.568358
0.568361
0.568363
0.568363
0.568366
0.568369
0.568371
0.568374
0.568374
0.568377
0.568379
0.568382
0.568385
0.568385
0.568387
0.56839
0.568393
0.568395
0.568395
0.568398
0.568401
0.568403
0.568406
0.568406
0.568409
0.568411
0.568414
0.568417
0.568417
0.56842
0.568423
0.568425
0.568428
0.568428
0.568431
0.568434
0.568436
0.568439
0.568439
0.568442
0.568445
0.568447
0.56845
0.56845
0.568453
0.568456
0.568458
0.568461
0.568461
0.568464
0.568467
0.56847
0.568472
0.568472
0.568475
0.568478
0.568481
0.568484
0.568484
0.568486
0.568489
0.568492
0.568495
0.568495
0.568498
0.5685
0.568503
0.568506
0.568506
0.568509
0.568512
0.568514
0.568517
0.568517
0.56852
0.568523
0.568526
0.568529
0.568529
0.568532
0.568534
0.568537
0.56854
0.56854
0.568543
0.568546
0.568549
0.568552
0.568552
0.568554
0.568557
0.56856
0.568563
0.568563
0.568566
0.568569
0.568572
0.568575
0.568575
0.568578
0.56858
0.568583
0.568586
0.568586
0.568589
0.568592
0.568595
0.568598
0.568598
0.568601
0.568604
0.568607
0.56861
0.56861
0.568613
0.568615
0.568618
0.568621
0.568621
0.568624
0.568627
0.56863
0.568633
0.568633
0.568636
0.568639
0.568642
0.568645
0.568645
0.568648
0.568651
0.568654
0.568657
0.568657
0.56866
0.568663
0.568666
0.568669
0.568669
0.568672
0.568675
0.568678
0.568681
0.568681
0.568684
0.568687
0.56869
0.568693
0.568693
0.568696
0.568699
0.568702
0.568705
0.568705
0.568708
0.568711
0.568714
0.568717
0.568717
0.56872
0.568723
0.568726
0.56873
0.56873
0.568733
0.568736
0.568739
0.568742
0.568742
0.568745
0.568748
0.568751
0.568754
0.568754
0.568757
0.56876
0.568763
0.568767
0.568767
0.56877
0.568773
0.568776
0.568779
0.568779
0.568782
0.568785
0.568788
0.568792
0.568792
0.568795
0.568798
0.568801
0.568804
0.568804
0.568807
0.56881
0.568814
0.568817
0.568817
0.56882
0.568823
0.568826
0.568829
0.568829
0.568833
0.568836
0.568839
0.568842
0.568842
0.568845
0.568848
0.568852
0.568855
0.568855
0.568858
0.568861
0.568865
0.568868
0.568868
0.568871
0.568874
0.568877
0.568881
0.568881
0.568884
0.568887
0.56889
0.568894
0.568894
0.568897
0.5689
0.568903
0.568907
0.568907
0.56891
0.568913
0.568916
0.56892
0.56892
0.568923
0.568926
0.568929
0.568933
0.568933
0.568936
0.568939
0.568942
0.568946
0.568946
0.568949
0.568952
0.568956
0.568959
0.568959
0.568962
0.568965
0.568969
0.568972
0.568972
0.568976
0.568979
0.568982
0.568986
0.568986
0.568989
0.568992
0.568996
0.568999
0.568999
0.569003
0.569006
0.569009
0.569013
0.569013
0.569016
0.569019
0.569023
0.569026
0.569026
0.56903
0.569033
0.569036
0.56904
0.56904
0.569043
0.569047
0.56905
0.569053
0.569053
0.569057
0.56906
0.569064
0.569067
0.569067
0.569071
0.569074
0.569078
0.569081
0.569081
0.569084
0.569088
0.569091
0.569095
0.569095
0.569098
0.569102
0.569105
0.569109
0.569109
0.569112
0.569116
0.569119
0.569123
0.569123
0.569126
0.56913
0.569133
0.569137
0.569137
0.56914
0.569144
0.569147
0.569151
0.569151
0.569154
0.569158
0.569161
0.569165
0.569165
0.569168
0.569172
0.569176
0.569179
0.569179
0.569183
0.569186
0.56919
0.569193
0.569193
0.569197
0.5692
0.569204
0.569208
0.569208
0.569211
0.569215
0.569218
0.569222
0.569222
0.569226
0.569229
0.569233
0.569236
0.569236
0.56924
0.569244
0.569247
0.569251
0.569251
0.569254
0.569258
0.569262
0.569265
0.569265
0.569269
0.569273
0.569276
0.56928
0.56928
0.569284
0.569287
0.569291
0.569295
0.569295
0.569299
0.569302
0.569306
0.56931
0.56931
0.569313
0.569317
0.569321
0.569325
0.569325
0.569328
0.569332
0.569336
0.56934
0.56934
0.569343
0.569347
0.569351
0.569355
0.569355
0.569358
0.569362
0.569366
0.56937
0.56937
0.569373
0.569377
0.569381
0.569385
0.569385
0.569388
0.569392
0.569396
0.5694
0.5694
0.569404
0.569407
0.569411
0.569415
0.569415
0.569419
0.569423
0.569427
0.56943
0.56943
0.569434
0.569438
0.569442
0.569446
0.569446
0.56945
0.569454
0.569457
0.569461
0.569461
0.569465
0.569469
0.569473
0.569477
0.569477
0.569481
0.569485
0.569488
0.569492
0.569492
0.569496
0.5695
0.569504
0.569508
0.569508
0.569512
0.569516
0.56952
0.569524
0.569524
0.569528
0.569532
0.569536
0.569539
0.569539
0.569543
0.569547
0.569551
0.569555
0.569555
0.569559
0.569563
0.569567
0.569571
0.569571
0.569575
0.569579
0.569583
0.569587
0.569587
0.569591
0.569595
0.569599
0.569603
0.569603
0.569607
0.569611
0.569616
0.56962
0.56962
0.569624
0.569628
0.569632
0.569636
0.569636
0.56964
0.569644
0.569648
0.569652
0.569652
0.569656
0.56966
0.569664
0.569669
0.569669
0.569673
0.569677
0.569681
0.569685
0.569685
0.569689
0.569693
0.569697
0.569702
0.569702
0.569706
0.56971
0.569714
0.569718
0.569718
0.569722
0.569726
0.569731
0.569735
0.569735
0.569739
0.569743
0.569747
0.569752
0.569752
0.569756
0.56976
0.569764
0.569768
0.569768
0.569773
0.569777
0.569781
0.569785
0.569785
0.56979
0.569794
0.569798
0.569802
0.569802
0.569807
0.569811
0.569815
0.569819
0.569819
0.569824
0.569828
0.569832
0.569836
0.569836
0.569841
0.569845
0.569849
0.569854
0.569854
0.569858
0.569862
0.569867
0.569871
0.569871
0.569875
0.56988
0.569884
0.569888
0.569888
0.569892
0.569897
0.569901
0.569905
0.569905
0.56991
0.569914
0.569919
0.569923
0.569923
0.569927
0.569932
0.569936
0.569941
0.569941
0.569945
0.56995
0.569954
0.569959
0.569959
0.569963
0.569967
0.569972
0.569976
0.569976
0.569981
0.569985
0.56999
0.569994
0.569994
0.569999
0.570003
0.570008
0.570012
0.570012
0.570017
0.570021
0.570026
0.57003
0.57003
0.570035
0.570039
0.570044
0.570048
0.570048
0.570053
0.570057
0.570062
0.570067
0.570067
0.570071
0.570076
0.57008
0.570085
0.570085
0.570089
0.570094
0.570099
0.570103
0.570103
0.570108
0.570112
0.570117
0.570122
0.570122
0.570126
0.570131
0.570135
0.57014
0.57014
0.570145
0.570149
0.570154
0.570159
0.570159
0.570163
0.570168
0.570173
0.570177
0.570177
0.570182
0.570187
0.570191
0.570196
0.570196
0.570201
0.570206
0.57021
0.570215
0.570215
0.57022
0.570224
0.570229
0.570234
0.570234
0.570238
0.570243
0.570248
0.570253
0.570253
0.570257
0.570262
0.570267
0.570272
0.570272
0.570277
0.570281
0.570286
0.570291
0.570291
0.570296
0.570301
0.570306
0.570311
0.570311
0.570315
0.57032
0.570325
0.57033
0.57033
0.570335
0.57034
0.570345
0.57035
0.57035
0.570354
0.570359
0.570364
0.570369
0.570369
0.570374
0.570379
0.570384
0.570389
0.570389
0.570394
0.570399
0.570404
0.570409
0.570409
0.570413
0.570418
0.570423
0.570428
0.570428
0.570433
0.570438
0.570443
0.570448
0.570448
0.570453
0.570458
0.570463
0.570468
0.570468
0.570473
0.570478
0.570483
0.570488
0.570488
0.570493
0.570499
0.570504
0.570509
0.570509
0.570514
0.570519
0.570524
0.570529
0.570529
0.570534
0.570539
0.570544
0.570549
0.570549
0.570554
0.57056
0.570565
0.57057
0.57057
0.570575
0.57058
0.570585
0.57059
0.57059
0.570595
0.570601
0.570606
0.570611
0.570611
0.570616
0.570621
0.570626
0.570632
0.570632
0.570637
0.570642
0.570647
0.570653
0.570653
0.570658
0.570663
0.570668
0.570674
0.570674
0.570679
0.570684
0.57069
0.570695
0.570695
0.5707
0.570705
0.570711
0.570716
0.570716
0.570721
0.570727
0.570732
0.570737
0.570737
0.570743
0.570748
0.570753
0.570759
0.570759
0.570764
0.57077
0.570775
0.57078
0.57078
0.570786
0.570791
0.570796
0.570802
0.570802
0.570807
0.570813
0.570818
0.570824
0.570824
0.570829
0.570834
0.57084
0.570845
0.570845
0.570851
0.570856
0.570862
0.570867
0.570867
0.570873
0.570878
0.570884
0.570889
0.570889
0.570895
0.5709
0.570906
0.570911
0.570911
0.570917
0.570922
0.570928
0.570934
0.570934
0.570939
0.570945
0.57095
0.570956
0.570956
0.570961
0.570967
0.570973
0.570978
0.570978
0.570984
0.570989
0.570995
0.571
0.571
0.571006
0.571012
0.571017
0.571023
0.571023
0.571029
0.571034
0.57104
0.571046
0.571046
0.571052
0.571057
0.571063
0.571069
0.571069
0.571075
0.57108
0.571086
0.571092
0.571092
0.571098
0.571103
0.571109
0.571115
0.571115
0.571121
0.571127
0.571132
0.571138
0.571138
0.571144
0.57115
0.571156
0.571162
0.571162
0.571167
0.571173
0.571179
0.571185
0.571185
0.571191
0.571197
0.571203
0.571208
0.571208
0.571214
0.57122
0.571226
0.571232
0.571232
0.571238
0.571244
0.57125
0.571256
0.571256
0.571262
0.571268
0.571274
0.57128
0.57128
0.571286
0.571292
0.571298
0.571304
0.571304
0.57131
0.571316
0.571322
0.571328
0.571328
0.571334
0.57134
0.571346
0.571352
0.571352
0.571358
0.571364
0.57137
0.571376
0.571376
0.571382
0.571388
0.571394
0.5714
0.5714
0.571406
0.571413
0.571419
0.571425
0.571425
0.571431
0.571437
0.571443
0.57145
0.57145
0.571456
0.571462
0.571468
0.571475
0.571475
0.571481
0.571487
0.571493
0.5715
0.5715
0.571506
0.571512
0.571518
0.571525
0.571525
0.571531
0.571537
0.571544
0.57155
0.57155
0.571556
0.571562
0.571569
0.571575
0.571575
0.571581
0.571588
0.571594
0.571601
0.571601
0.571607
0.571613
0.57162
0.571626
0.571626
0.571632
0.571639
0.571645
0.571652
0.571652
0.571658
0.571665
0.571671
0.571677
0.571677
0.571684
0.57169
0.571697
0.571703
0.571703
0.57171
0.571716
0.571723
0.571729
0.571729
0.571736
0.571742
0.571749
0.571756
0.571756
0.571762
0.571769
0.571775
0.571782
0.571782
0.571788
0.571795
0.571801
0.571808
0.571808
0.571815
0.571821
0.571828
0.571834
0.571834
0.571841
0.571848
0.571854
0.571861
0.571861
0.571868
0.571874
0.571881
0.571888
0.571888
0.571895
0.571901
0.571908
0.571915
0.571915
0.571922
0.571929
0.571935
0.571942
0.571942
0.571949
0.571956
0.571963
0.571969
0.571969
0.571976
0.571983
0.57199
0.571997
0.571997
0.572004
0.572011
0.572017
0.572024
0.572024
0.572031
0.572038
0.572045
0.572052
0.572052
0.572059
0.572066
0.572073
0.57208
0.57208
0.572087
0.572094
0.572101
0.572108
0.572108
0.572115
0.572122
0.572129
0.572136
0.572136
0.572143
0.57215
0.572157
0.572164
0.572164
0.572171
0.572178
0.572185
0.572192
0.572192
0.572199
0.572206
0.572213
0.57222
0.57222
0.572228
0.572235
0.572242
0.572249
0.572249
0.572256
0.572263
0.57227
0.572277
0.572277
0.572285
0.572292
0.572299
0.572306
0.572306
0.572313
0.572321
0.572328
0.572335
0.572335
0.572342
0.57235
0.572357
0.572364
0.572364
0.572372
0.572379
0.572387
0.572394
0.572394
0.572401
0.572409
0.572416
0.572423
0.572423
0.572431
0.572438
0.572446
0.572453
0.572453
0.572461
0.572468
0.572475
0.572483
0.572483
0.57249
0.572498
0.572505
0.572513
0.572513
0.57252
0.572528
0.572535
0.572543
0.572543
0.57255
0.572558
0.572565
0.572573
0.572573
0.572581
0.572588
0.572596
0.572603
0.572603
0.572611
0.572619
0.572626
0.572634
0.572634
0.572642
0.572649
0.572657
0.572665
0.572665
0.572672
0.57268
0.572688
0.572695
0.572695
0.572703
0.572711
0.572718
0.572726
0.572726
0.572734
0.572742
0.572749
0.572757
0.572757
0.572765
0.572773
0.572781
0.572788
0.572788
0.572796
0.572804
0.572812
0.57282
0.57282
0.572828
0.572836
0.572844
0.572851
0.572851
0.572859
0.572867
0.572875
0.572883