<?xml version="1.0"?>
<VTKFile type="UnstructuredGrid" version="0.1" byte_order="LittleEndian">
<UnstructuredGrid>
<Piece NumberOfPoints="5000" NumberOfCells="4000">
<PointData Scalars="Reaction 0">
<DataArray type="Float32" Name="Reaction 0" format="ascii">
0.572541
0.572541
0.572541
0.572541
0.572541
0.572541
0.572541
0.572541
0.572541
0.572541
0.572541
0.572541
0.572541
0.572541
0.572541
0.572541
0.572541
0.572541
0.572541
0.572542
0.572542
0.572542
0.572542
0.572542
0.572542
0.572542
0.572542
0.572542
0.572542
0.572542
0.572542
0.572542
0.572542
0.572542
0.572543
0.572543
0.572543
0.572543
0.572543
0.572543
0.572543
0.572543
0.572543
0.572543
0.572544
0.572544
0.572544
0.572544
0.572544
0.572544
0.572544
0.572544
0.572544
0.572545
0.572545
0.572545
0.572545
0.572545
0.572545
0.572545
0.572545
0.572546
0.572546
0.572546
0.572546
0.572546
0.572546
0.572547
0.572547
0.572547
0.572547
0.572547
0.572547
0.572548
0.572548
0.572548
0.572548
0.572548
0.572549
0.572549
0.572549
0.572549
0.572549
0.57255
0.57255
0.57255
0.57255
0.57255
0.572551
0.572551
0.572551
0.572551
0.572551
0.572552
0.572552
0.572552
0.572552
0.572553
0.572553
0.572553
0.572553
0.572554
0.572554
0.572554
0.572554
0.572554
0.572555
0.572555
0.572555
0.572556
0.572556
0.572556
0.572556
0.572557
0.572557
0.572557
0.572557
0.572558
0.572558
0.572559
0.572559
0.572559
0.572559
0.57256
0.57256
0.57256
0.57256
0.572561
0.572561
0.572562
0.572562
0.572562
0.572562
0.572563
0.572563
0.572563
0.572564
0.572564
0.572564
0.572565
0.572565
0.572565
0.572566
0.572566
0.572567
0.572567
0.572567
0.572568
0.572568
0.572568
0.572568
0.572569
0.572569
0.57257
0.57257
0.57257
0.572571
0.572571
0.572572
0.572572
0.572572
0.572573
0.572573
0.572574
0.572574
0.572574
0.572575
0.572575
0.572576
0.572576
0.572576
0.572577
0.572577
0.572578
0.572578
0.572578
0.572579
0.572579
0.57258
0.57258
0.57258
0.572581
0.572582
0.572582
0.572583
0.572583
0.572583
0.572584
0.572584
0.572585
0.572585
0.572586
0.572586
0.572587
0.572587
0.572587
0.572588
0.572589
0.572589
0.57259
0.57259
0.57259
0.572591
0.572592
0.572592
0.572592
0.572593
0.572593
0.572594
0.572595
0.572595
0.572595
0.572596
0.572597
0.572597
0.572597
0.572598
0.572599
0.572599
0.5726
0.5726
0.572601
0.572601
0.572602
0.572603
0.572603
0.572603
0.572604
0.572605
0.572605
0.572605
0.572606
0.572607
0.572608
0.572608
0.572608
0.572609
0.57261
0.57261
0.572611
0.572611
0.572612
0.572613
0.572613
0.572614
0.572614
0.572615
0.572616
0.572616
0.572617
0.572617
0.572618
0.572619
0.57262
0.57262
0.57262
0.572621
0.572622
0.572623
0.572623
0.572623
0.572624
0.572625
0.572626
0.572627
0.572627
0.572627
0.572628
0.572629
0.57263
0.57263
0.572631
0.572632
0.572632
0.572633
0.572633
0.572634
0.572635
0.572636
0.572637
0.572637
0.572638
0.572638
0.572639
0.57264
0.57264
0.572641
0.572642
0.572643
0.572644
0.572644
0.572645
0.572645
0.572646
0.572647
0.572647
0.572648
0.572649
0.57265
0.572651
0.572651
0.572652
0.572653
0.572654
0.572655
0.572655
0.572656
0.572657
0.572657
0.572658
0.572658
0.572659
0.57266
0.572661
0.572662
0.572662
0.572663
0.572664
0.572665
0.572666
0.572666
0.572667
0.572668
0.572669
0.57267
0.57267
0.572671
0.572672
0.572673
0.572674
0.572674
0.572675
0.572676
0.572677
0.572678
0.572678
0.572679
0.57268
0.572681
0.572682
0.572682
0.572683
0.572684
0.572686
0.572687
0.572687
0.572688
0.572689
0.57269
0.572691
0.572691
0.572692
0.572693
0.572694
0.572695
0.572695
0.572696
0.572697
0.572698
0.5727
0.5727
0.572701
0.572702
0.572703
0.572704
0.572704
0.572705
0.572706
0.572707
0.572708
0.572708
0.57271
0.572711
0.572712
0.572713
0.572713
0.572714
0.572715
0.572717
0.572718
0.572718
0.572719
0.57272
0.572721
0.572723
0.572723
0.572724
0.572725
0.572726
0.572727
0.572727
0.572729
0.57273
0.572731
0.572732
0.572732
0.572733
0.572735
0.572736
0.572737
0.572737
0.572738
0.57274
0.572741
0.572742
0.572742
0.572743
0.572745
0.572746
0.572747
0.572747
0.572748
0.57275
0.572751
0.572752
0.572752
0.572754
0.572755
0.572756
0.572757
0.572757
0.572759
0.57276
0.572761
0.572763
0.572763
0.572764
0.572765
0.572767
0.572768
0.572768
0.572769
0.572771
0.572772
0.572773
0.572773
0.572775
0.572776
0.572777
0.572779
0.572779
0.57278
0.572782
0.572783
0.572784
0.572784
0.572786
0.572787
0.572788
0.57279
0.57279
0.572791
0.572793
0.572794
0.572795
0.572795
0.572797
0.572798
0.5728
0.572801
0.572801
0.572803
0.572804
0.572805
0.572807
0.572807
0.572808
0.57281
0.572811
0.572813
0.572813
0.572814
0.572816
0.572817
0.572819
0.572819
0.57282
0.572822
0.572823
0.572825
0.572825
0.572826
0.572828
0.572829
0.572831
0.572831
0.572832
0.572834
0.572835
0.572837
0.572837
0.572838
0.57284
0.572841
0.572843
0.572843
0.572844
0.572846
0.572848
0.572849
0.572849
0.572851
0.572852
0.572854
0.572855
0.572855
0.572857
0.572859
0.57286
0.572862
0.572862
0.572863
0.572865
0.572867
0.572868
0.572868
0.57287
0.572871
0.572873
0.572875
0.572875
0.572876
0.572878
0.57288
0.572881
0.572881
0.572883
0.572884
0.572886
0.572888
0.572888
0.572889
0.572891
0.572893
0.572894
0.572894
0.572896
0.572898
0.5729
0.572901
0.572901
0.572903
0.572905
0.572906
0.572908
0.572908
0.57291
0.572911
0.572913
0.572915
0.572915
0.572917
0.572918
0.57292
0.572922
0.572922
0.572924
0.572925
0.572927
0.572929
0.572929
0.572931
0.572932
0.572934
0.572936
0.572936
0.572938
0.57294
0.572941
0.572943
0.572943
0.572945
0.572947
0.572949
0.57295
0.57295
0.572952
0.572954
0.572956
0.572958
0.572958
0.572959
0.572961
0.572963
0.572965
0.572965
0.572967
0.572969
0.572971
0.572972
0.572972
0.572974
0.572976
0.572978
0.57298
0.57298
0.572982
0.572984
0.572986
0.572987
0.572987
0.572989
0.572991
0.572993
0.572995
0.572995
0.572997
0.572999
0.573001
0.573003
0.573003
0.573005
0.573007
0.573009
0.573011
0.573011
0.573013
0.573014
0.573016
0.573018
0.573018
0.57302
0.573022
0.573024
0.573026
0.573026
0.573028
0.57303
0.573032
0.573034
0.573034
0.573036
0.573038
0.57304
0.573042
0.573042
0.573044
0.573046
0.573048
0.57305
0.57305
0.573053
0.573055
0.573057
0.573059
0.573059
0.573061
0.573063
0.573065
0.573067
0.573067
0.573069
0.573071
0.573073
0.573075
0.573075
0.573077
0.573079
0.573082
0.573084
0.573084
0.573086
0.573088
0.57309
0.573092
0.573092
0.573094
0.573096
0.573099
0.573101
0.573101
0.573103
0.573105
0.573107
0.573109
0.573109
0.573111
0.573114
0.573116
0.573118
0.573118
0.57312
0.573122
0.573124
0.573127
0.573127
0.573129
0.573131
0.573133
0.573136
0.573136
0.573138
0.57314
0.573142
0.573144
0.573144
0.573147
0.573149
0.573151
0.573153
0.573153
0.573156
0.573158
0.57316
0.573162
0.573162
0.573165
0.573167
0.573169
0.573172
0.573172
0.573174
0.573176
0.573178
0.573181
0.573181
0.573183
0.573185
0.573188
0.57319
0.57319
0.573192
0.573195
0.573197
0.573199
0.573199
0.573202
0.573204
0.573206
0.573209
0.573209
0.573211
0.573213
0.573216
0.573218
0.573218
0.573221
0.573223
0.573225
0.573228
0.573228
0.57323
0.573232
0.573235
0.573237
0.573237
0.57324
0.573242
0.573245
0.573247
0.573247
0.573249
0.573252
0.573254
0.573257
0.573257
0.573259
0.573262
0.573264
0.573267
0.573267
0.573269
0.573272
0.573274
0.573276
0.573276
0.573279
0.573281
0.573284
0.573286
0.573286
0.573289
0.573291
0.573294
0.573297
0.573297
0.573299
0.573302
0.573304
0.573307
0.573307
0.573309
0.573312
0.573314
0.573317
0.573317
0.573319
0.573322
0.573324
0.573327
0.573327
0.57333
0.573332
0.573335
0.573337
0.573337
0.57334
0.573342
0.573345
0.573348
0.573348
0.57335
0.573353
0.573356
0.573358
0.573358
0.573361
0.573364
0.573366
0.573369
0.573369
0.573372
0.573374
0.573377
0.57338
0.57338
0.573382
0.573385
0.573388
0.57339
0.57339
0.573393
0.573396
0.573398
0.573401
0.573401
0.573404
0.573407
0.573409
0.573412
0.573412
0.573415
0.573418
0.57342
0.573423
0.573423
0.573426
0.573429
0.573431
0.573434
0.573434
0.573437
0.57344
0.573442
0.573445
0.573445
0.573448
0.573451
0.573454
0.573456
0.573456
0.573459
0.573462
0.573465
0.573468
0.573468
0.57347
0.573473
0.573476
0.573479
0.573479
0.573482
0.573485
0.573488
0.57349
0.57349
0.573493
0.573496
0.573499
0.573502
0.573502
0.573505
0.573508
0.573511
0.573514
0.573514
0.573516
0.573519
0.573522
0.573525
0.573525
0.573528
0.573531
0.573534
0.573537
0.573537
0.57354
0.573543
0.573546
0.573549
0.573549
0.573552
0.573555
0.573558
0.573561
0.573561
0.573564
0.573567
0.57357
0.573573
0.573573
0.573576
0.573579
0.573582
0.573585
0.573585
0.573588
0.573591
0.573594
0.573597
0.573597
0.5736
0.573603
0.573606
0.573609
0.573609
0.573612
0.573615
0.573618
0.573621
0.573621
0.573624
0.573627
0.573631
0.573634
0.573634
0.573637
0.57364
0.573643
0.573646
0.573646
0.573649
0.573652
0.573655
0.573659
0.573659
0.573662
0.573665
0.573668
0.573671
0.573671
0.573674
0.573678
0.573681
0.573684
0.573684
0.573687
0.57369
0.573694
0.573697
0.573697
0.5737
0.573703
0.573706
0.57371
0.57371
0.573713
0.573716
0.573719
0.573723
0.573723
0.573726
0.573729
0.573732
0.573736
0.573736
0.573739
0.573742
0.573745
0.573749
0.573749
0.573752
0.573755
0.573759
0.573762
0.573762
0.573765
0.573768
0.573772
0.573775
0.573775
0.573778
0.573782
0.573785
0.573788
0.573788
0.573792
0.573795
0.573799
0.573802
0.573802
0.573805
0.573809
0.573812
0.573815
0.573815
0.573819
0.573822
0.573826
0.573829
0.573829
0.573832
0.573836
0.573839
0.573843
0.573843
0.573846
0.57385
0.573853
0.573856
0.573856
0.57386
0.573863
0.573867
0.57387
0.57387
0.573874
0.573877
0.573881
0.573884
0.573884
0.573888
0.573891
0.573895
0.573898
0.573898
0.573902
0.573905
0.573909
0.573912
0.573912
0.573916
0.57392
0.573923
0.573927
0.573927
0.57393
0.573934
0.573937
0.573941
0.573941
0.573944
0.573948
0.573952
0.573955
0.573955
0.573959
0.573962
0.573966
0.57397
0.57397
0.573973
0.573977
0.573981
0.573984
0.573984
0.573988
0.573991
0.573995
0.573999
0.573999
0.574002
0.574006
0.57401
0.574013
0.574013
0.574017
0.574021
0.574024
0.574028
0.574028
0.574032
0.574036
0.574039
0.574043
0.574043
0.574047
0.574051
0.574054
0.574058
0.574058
0.574062
0.574066
0.57407
0.574073
0.574073
0.574077
0.574081
0.574085
0.574089
0.574089
0.574092
0.574096
0.5741
0.574104
0.574104
0.574108
0.574111
0.574115
0.574119
0.574119
0.574123
0.574127
0.574131
0.574135
0.574135
0.574138
0.574142
0.574146
0.57415
0.57415
0.574154
0.574158
0.574162
0.574166
0.574166
0.57417
0.574174
0.574177
0.574181
0.574181
0.574185
0.574189
0.574193
0.574197
0.574197
0.574201
0.574205
0.574209
0.574213
0.574213
0.574217
0.574221
0.574225
0.574229
0.574229
0.574233
0.574237
0.574241
0.574245
0.574245
0.574249
0.574253
0.574257
0.574261
0.574261
0.574265
0.574269
0.574273
0.574278
0.574278
0.574282
0.574286
0.57429
0.574294
0.574294
0.574298
0.574302
0.574306
0.57431
0.57431
0.574314
0.574319
0.574323
0.574327
0.574327
0.574331
0.574335
0.574339
0.574343
0.574343
0.574348
0.574352
0.574356
0.57436
0.57436
0.574364
0.574369
0.574373
0.574377
0.574377
0.574381
0.574385
0.57439
0.574394
0.574394
0.574398
0.574402
0.574407
0.574411
0.574411
0.574415
0.574419
0.574424
0.574428
0.574428
0.574432
0.574437
0.574441
0.574445
0.574445
0.574449
0.574454
0.574458
0.574462
0.574462
0.574467
0.574471
0.574475
0.57448
0.57448
0.574484
0.574489
0.574493
0.574497
0.574497
0.574502
0.574506
0.574511
0.574515
0.574515
0.574519
0.574524
0.574528
0.574533
0.574533
0.574537
0.574541
0.574546
0.57455
0.57455
0.574555
0.574559
0.574564
0.574568
0.574568
0.574573
0.574577
0.574582
0.574586
0.574586
0.574591
0.574595
0.5746
0.574604
0.574604
0.574609
0.574613
0.574618
0.574622
0.574622
0.574627
0.574632
0.574636
0.574641
0.574641
0.574645
0.57465
0.574654
0.574659
0.574659
0.574664
0.574668
0.574673
0.574677
0.574677
0.574682
0.574687
0.574691
0.574696
0.574696
0.574701
0.574705
0.57471
0.574715
0.574715
0.574719
0.574724
0.574729
0.574733
0.574733
0.574738
0.574743
0.574747
0.574752
0.574752
0.574757
0.574762
0.574766
0.574771
0.574771
0.574776
0.574781
0.574786
0.57479
0.57479
0.574795
0.5748
0.574805
0.57481
0.57481
0.574814
0.574819
0.574824
0.574829
0.574829
0.574834
0.574839
0.574843
0.574848
0.574848
0.574853
0.574858
0.574863
0.574868
0.574868
0.574873
0.574878
0.574882
0.574887
0.574887
0.574892
0.574897
0.574902
0.574907
0.574907
0.574912
0.574917
0.574922
0.574927
0.574927
0.574932
0.574937
0.574942
0.574947
0.574947
0.574952
0.574957
0.574962
0.574967
0.574967
0.574972
0.574977
0.574982
0.574987
0.574987
0.574992
0.574997
0.575002
0.575007
0.575007
0.575012
0.575017
0.575022
0.575027
0.575027
0.575033
0.575038
0.575043
0.575048
0.575048
0.575053
0.575058
0.575063
0.575068
0.575068
0.575074
0.575079
0.575084
0.575089
0.575089
0.575094
0.5751
0.575105
0.57511
0.57511
0.575115
0.57512
0.575126
0.575131
0.575131
0.575136
0.575141
0.575147
0.575152
0.575152
0.575157
0.575162
0.575168
0.575173
0.575173
0.575178
0.575183
0.575189
0.575194
0.575194
0.575199
0.575205
0.57521
0.575215
0.575215
0.575221
0.575226
0.575231
0.575237
0.575237
0.575242
0.575248
0.575253
0.575258
0.575258
0.575264
0.575269
0.575275
0.57528
0.57528
0.575285
0.575291
0.575296
0.575302
0.575302
0.575307
0.575313
0.575318
0.575324
0.575324
0.575329
0.575335
0.57534
0.575346
0.575346
0.575351
0.575357
0.575362
0.575368
0.575368
0.575373
0.575379
0.575384
0.57539
0.57539
0.575396
0.575401
0.575407
0.575412
0.575412
0.575418
0.575423
0.575429
0.575435
0.575435
0.57544
0.575446
0.575452
0.575457
0.575457
0.575463
0.575468
0.575474
0.57548
0.57548
0.575485
0.575491
0.575497
0.575502
0.575502
0.575508
0.575514
0.575519
0.575525
0.575525
0.575531
0.575537
0.575543
0.575548
0.575548
0.575554
0.57556
0.575566
0.575572
0.575572
0.575578
0.575583
0.575589
0.575595
0.575595
0.575601
0.575607
0.575613
0.575618
0.575618
0.575624
0.57563
0.575636
0.575642
0.575642
0.575648
0.575654
0.57566
0.575666
0.575666
0.575672
0.575678
0.575683
0.575689
0.575689
0.575695
0.575701
0.575707
0.575713
0.575713
0.575719
0.575725
0.575731
0.575737
0.575737
0.575743
0.575749
0.575755
0.575761
0.575761
0.575767
0.575773
0.57578
0.575786
0.575786
0.575792
0.575798
0.575804
0.57581
0.57581
0.575816
0.575822
0.575828
0.575834
0.575834
0.575841
0.575847
0.575853
0.575859
0.575859
0.575865
0.575871
0.575878
0.575884
0.575884
0.57589
0.575896
0.575902
0.575909
0.575909
0.575915
0.575921
0.575927
0.575934
0.575934
0.57594
0.575946
0.575952
0.575959
0.575959
0.575965
0.575971
0.575978
0.575984
0.575984
0.57599
0.575997
0.576003
0.576009
0.576009
0.576016
0.576022
0.576028
0.576035
0.576035
0.576041
0.576048
0.576054
0.57606
0.57606
0.576067
0.576073
0.57608
0.576086
0.576086
0.576093
0.576099
0.576105
0.576112
0.576112
0.576118
0.576125
0.576131
0.576138
0.576138
0.576144
0.576151
0.576158
0.576164
0.576164
0.576171
0.576177
0.576184
0.57619
0.57619
0.576197
0.576204
0.57621
0.576217
0.576217
0.576223
0.57623
0.576237
0.576243
0.576243
0.57625
0.576256
0.576263
0.57627
0.57627
0.576276
0.576283
0.57629
0.576296
0.576296
0.576303
0.57631
0.576317
0.576323
0.576323
0.57633
0.576337
0.576343
0.57635
0.57635
0.576357
0.576364
0.576371
0.576377
0.576377
0.576384
0.576391
0.576398
0.576405
0.576405
0.576412
0.576419
0.576426
0.576433
0.576433
0.576439
0.576446
0.576453
0.57646
0.57646
0.576467
0.576474
0.576481
0.576488
0.576488
0.576495
0.576502
0.576509
0.576516
0.576516
0.576523
0.57653
0.576537
0.576544
0.576544
0.576551
0.576558
0.576565
0.576572
0.576572
0.576579
0.576586
0.576593
0.5766
0.5766
0.576607
0.576614
0.576622
0.576629
0.576629
0.576636
0.576643
0.57665
0.576657
0.576657
0.576664
0.576672
0.576679
0.576686
0.576686
0.576693
0.5767
0.576708
0.576715
0.576715
0.576722
0.576729
0.576737
0.576744
0.576744
0.576751
0.576758
0.576766
0.576773
0.576773
0.57678
0.576788
0.576795
0.576802
0.576802
0.57681
0.576817
0.576824
0.576832
0.576832
0.576839
0.576846
0.576854
0.576861
0.576861
0.576869
0.576876
0.576883
0.576891
0.576891
0.576898
0.576906
0.576913
0.576921
0.576921
0.576928
0.576936
0.576943
0.576951
0.576951
0.576958
0.576966
0.576973
0.576981
0.576981
0.576988
0.576996
0.577004
0.577011
0.577011
0.577019
0.577026
0.577034
0.577042
0.577042
0.577049
0.577057
0.577065
0.577072
0.577072
0.57708
0.577088
0.577095
0.577103
0.577103
0.577111
0.577118
0.577126
0.577134
0.577134
0.577142
0.577149
0.577157
0.577165
0.577165
0.577172
0.57718
0.577188
0.577196
0.577196
0.577204
0.577211
0.577219
0.577227
0.577227
0.577235
0.577243
0.577251
0.577258
0.577258
0.577266
0.577274
0.577282
0.57729
0.57729
0.577298
0.577306
0.577314
0.577322
0.577322
0.57733
0.577338
0.577346
0.577354
0.577354
0.577362
0.57737
0.577378
0.577386
0.577386
0.577395
0.577403
0.577411
0.577419
0.577419
0.577427
0.577435
0.577443
0.577451
0.577451
0.577459
0.577468
0.577476
0.577484
0.577484
0.577492
0.5775
0.577508
0.577517
0.577517
0.577525
0.577533
0.577541
0.577549
0.577549
0.577558
0.577566
0.577574
0.577583
0.577583
0.577591
0.577599
0.577607
0.577616
0.577616
0.577624
0.577632
0.577641
0.577649
0.577649
0.577658
0.577666
0.577674
0.577683
0.577683
0.577691
0.5777
0.577708
0.577716
0.577716
0.577725
0.577733
0.577742
0.57775
0.57775
0.577759
0.577767
0.577776
0.577784
0.577784
0.577793
0.577801
0.57781
0.577819
0.577819
0.577827
0.577836
0.577844
0.577853
0.577853
0.577862
0.57787
0.577879
0.577887
0.577887
0.577896
0.577905
0.577914
0.577922
0.577922
0.577931
0.57794
0.577948
0.577957
0.577957
0.577966
0.577975
0.577983
0.577992
0.577992
0.578001
0.57801
0.578018
0.578027
0.578027
0.578036
0.578045
0.578054
0.578063
0.578063
0.578071
0.57808
0.578089
0.578098
0.578098
0.578107
0.578116
0.578125
0.578134
0.578134
0.578143
0.578151
0.57816
0.578169
0.578169
0.578178
0.578187
0.578196
0.578205
0.578205
0.578214
0.578224
0.578233
0.578242
0.578242
0.578251
0.57826
0.578269
0.578278
0.578278
0.578288
0.578297
0.578306
0.578315
0.578315
0.578324
0.578334
0.578343
0.578352
0.578352
0.578361
0.57837
0.57838
0.578389
0.578389
0.578398
0.578407
0.578417
0.578426
0.578426
0.578435
0.578445
0.578454
0.578463
0.578463
0.578473
0.578482
0.578491
0.578501
0.578501
0.57851
0.57852
0.578529
0.578539
0.578539
0.578548
0.578557
0.578567
0.578576
0.578576
0.578586
0.578595
0.578605
0.578614
0.578614
0.578624
0.578634
0.578643
0.578653
0.578653
0.578662
0.578672
0.578681
0.578691
0.578691
0.578701
0.57871
0.57872
0.57873
0.57873
0.578739
0.578749
0.578759
0.578768
0.578768
0.578778
0.578788
0.578798
0.578807
0.578807
0.578817
0.578827
0.578837
0.578847
0.578847
0.578856
0.578866
0.578876
0.578886
0.578886
0.578896
0.578906
0.578915
0.578925
0.578925
0.578935
0.578945
0.578955
0.578965
0.578965
0.578975
0.578985
0.578995
0.579005
0.579005
0.579015
0.579025
0.579035
0.579045
0.579045
0.579055
0.579065
0.579075
0.579085
0.579085
0.579095
0.579105
0.579115
0.579125
0.579125
0.579136
0.579146
0.579156
0.579166
0.579166
0.579176
0.579186
0.579196
0.579207
0.579207
0.579217
0.579227
0.579238
0.579248
0.579248
0.579258
0.579269
0.579279
0.579289
0.579289
0.5793
0.57931
0.579321
0.579331
0.579331
0.579341
0.579352
0.579362
0.579373
0.579373
0.579383
0.579394
0.579404
0.579415
0.579415
0.579425
0.579436
0.579446
0.579457
0.579457
0.579467
0.579478
0.579488
0.579499
0.579499
0.57951
0.57952
0.579531
0.579541
0.579541
0.579552
0.579563
0.579573
0.579584
0.579584
0.579595
0.579606
0.579616
0.579627
0.579627
0.579638
0.579649
0.579659
0.57967
0.57967
0.579681
0.579692
0.579703
0.579713
0.579713
0.579724
0.579735
0.579746
0.579757
0.579757
0.579768
0.579779
0.57979
0.579801
0.579801
0.579812
0.579822
0.579833
0.579844
0.579844
0.579855
0.579866
0.579878
0.579889
0.579889
0.5799
0.579911
0.579922
0.579933
0.579933
0.579944
0.579955
0.579966
0.579977
0.579977
0.579989
0.58
0.580011
0.580022
0.580022
0.580033
0.580045
0.580056
0.580067
0.580067
0.580078
0.58009
0.580101
0.580112
0.580112
0.580124
0.580135
0.580146
0.580157
0.580157
0.580169
0.58018
0.580192
0.580203
0.580203
0.580214
0.580226
0.580237
0.580249
0.580249
0.58026
0.580272
0.580283
0.580295
0.580295
0.580306
0.580318
0.580329
0.580341
0.580341
0.580353
0.580364
0.580376
0.580388
0.580388
0.580399
0.580411
0.580423
0.580435
0.580435
0.580446
0.580458
0.58047
0.580482
0.580482
0.580493
0.580505
0.580517
0.580529
0.580529
0.580541
0.580553
0.580564
0.580576
0.580576
0.580588
0.5806
0.580612
0.580624
0.580624
0.580636
0.580648
0.58066
0.580672
0.580672
0.580684
0.580696
0.580708
0.58072
0.58072
0.580732
0.580744
0.580756
0.580768
0.580768
0.58078
0.580792
0.580805
0.580817
0.580817
0.580829
0.580841
0.580853
0.580865
0.580865
0.580878
0.58089
0.580902
0.580914
0.580914
0.580927
0.580939
0.580951
0.580964
0.580964
0.580976
0.580988
0.581001
0.581013
0.581013
0.581026
0.581038
0.58105
0.581063
0.581063
0.581075
0.581088
0.5811
0.581113
0.581113
0.581125
0.581138
0.58115
0.581163
0.581163
0.581175
0.581188
0.581201
0.581213
0.581213
0.581226
0.581239
0.581251
0.581264
0.581264
0.581277
0.581289
0.581302
0.581315
0.581315
0.581327
0.58134
0.581353
0.581366
0.581366
0.581378
0.581391
0.581404
0.581417
0.581417
0.58143
0.581443
0.581456
0.581469
0.581469
0.581482
0.581495
0.581508
0.581521
0.581521
0.581534
0.581547
0.58156
0.581573
0.581573
0.581586
0.581599
0.581612
0.581625
0.581625
0.581639
0.581652
0.581665
0.581678
0.581678
0.581691
0.581705
0.581718
0.581731
0.581731
0.581744
0.581758
0.581771
0.581784
0.581784
0.581798
0.581811
0.581824
0.581838
0.581838
0.581851
0.581864
0.581878
0.581891
0.581891
0.581905
0.581918
0.581932
0.581945
0.581945
0.581959
0.581972
0.581986
0.581999
0.581999
0.582013
0.582027
0.58204
0.582054
0.582054
0.582067
0.582081
0.582095
0.582108
0.582108
0.582122
0.582136
0.58215
0.582163
0.582163
0.582177
0.582191
0.582205
0.582219
0.582219
0.582232
0.582246
0.58226
0.582274
0.582274
0.582288
0.582302
0.582316
0.58233
0.58233
0.582344
0.582358
0.582372
0.582386
0.582386
0.5824
0.582414
0.582428
0.582442
0.582442
0.582456
0.58247
0.582484
0.582498
0.582498
0.582512
0.582527
0.582541
0.582555
0.582555
0.582569
0.582583
0.582597
0.582612
0.582612
0.582626
0.58264
0.582655
0.582669
0.582669
0.582684
0.582698
0.582712
0.582727
0.582727
0.582741
0.582756
0.582771
0.582785
0.582785
0.5828
0.582814
0.582829
0.582843
0.582843
0.582858
0.582873
0.582887
0.582902
0.582902
0.582917
0.582931
0.582946
0.582961
0.582961
0.582975
0.58299
0.583005
0.58302
0.58302
0.583035
0.583049
0.583064
0.583079
0.583079
0.583094
0.583109
0.583124
0.583139
0.583139
0.583154
0.583169
0.583183
0.583198
0.583198
0.583213
0.583229
0.583244
0.583259
0.583259
0.583274
0.583289
0.583304
0.583319
0.583319
0.583334
0.583349
0.583365
0.58338
0.58338
0.583395
0.58341
0.583426
0.583441
0.583441
0.583456
0.583471
0.583487
0.583502
0.583502
0.583517
0.583533
0.583548
0.583564
0.583564
0.583579
0.583595
0.58361
0.583626
0.583626
0.583641
0.583657
0.583672
0.583688
0.583688
0.583703
0.583719
0.583734
0.58375
0.58375
0.583766
0.583781
0.583797
0.583813
0.583813
0.583828
0.583844
0.58386
0.583875
0.583875
0.583891
0.583907
0.583923
0.583939
0.583939
0.583955
0.583971
0.583987
0.584003
0.584003
0.584019
0.584035
0.584051
0.584067
0.584067
0.584083
0.584099
0.584115
0.584131
0.584131
0.584147
0.584164
0.58418
0.584196
0.584196
0.584212
0.584228
0.584245
0.584261
0.584261
0.584277
0.584294
0.58431
0.584326
0.584326
0.584343
0.584359
0.584375
0.584392
0.584392
0.584408
0.584425
0.584441
0.584458
0.584458
0.584474
0.584491
0.584507
0.584524
0.584524
0.58454
0.584557
0.584574
0.58459
0.58459
0.584607
0.584624
0.58464
0.584657
0.584657
0.584674
0.584691
0.584707
0.584724
0.584724
0.584741
0.584758
0.584775
0.584792
0.584792
0.584808
0.584825
0.584842
0.584859
0.584859
0.584876
0.584893
0.58491
0.584927
0.584927
0.584944
0.584961
0.584979
0.584996
0.584996
0.585013
0.58503
0.585047
0.585064
0.585064
0.585081
0.585099
0.585116
0.585133
0.585133
0.58515
0.585168
0.585185
0.585202
0.585202
0.58522
0.585237
0.585254
0.585272
0.585272
0.585289
0.585307
0.585324
0.585342
0.585342
0.58536
0.585377
0.585395
0.585413
0.585413
0.58543
0.585448
0.585466
0.585483
0.585483
0.585501
0.585519
0.585537
0.585555
0.585555
0.585573
0.58559
0.585608
0.585626
0.585626
0.585644
0.585662
0.58568
0.585698
0.585698
0.585716
0.585734
0.585752
0.58577
0.58577
0.585788
0.585806
0.585824
0.585842
0.585842
0.585861
0.585879
0.585897
0.585915
0.585915
0.585933
0.585952
0.58597
0.585988
0.585988
0.586007
0.586025
0.586043
0.586062
0.586062
0.58608
0.586099
0.586117
0.586136
0.586136
0.586154
0.586173
0.586191
0.58621
0.58621
0.586228
0.586247
0.586266
0.586284
0.586284
0.586303
0.586322
0.58634
0.586359
0.586359
0.586378
0.586397
0.586415
0.586434
0.586434
0.586453
0.586472
0.586491
0.58651
0.58651
0.586529
0.586548
0.586566
0.586585
0.586585
0.586604
0.586623
0.586642
0.586661
0.586661
0.586681
0.5867
0.586719
0.586738
0.586738
0.586757
0.586776
0.586796
0.586815
0.586815
0.586834
0.586854
0.586873
0.586893
0.586893
0.586912
0.586932
0.586951
0.586971
0.586971
0.58699
0.58701
0.587029
0.587049
0.587049
0.587069
0.587088
0.587108
0.587128
0.587128
0.587147
0.587167
0.587187
0.587207
0.587207
0.587226
0.587246
0.587266
0.587286
0.587286
0.587306
0.587326
0.587346
0.587365
0.587365
0.587385
0.587405
0.587425
0.587445
0.587445
0.587466
0.587486
0.587506
0.587526
0.587526
0.587546
0.587566
0.587586
0.587607
0.587607
0.587627
0.587647
0.587667
0.587688
0.587688
0.587708
0.587729
0.587749
0.587769
0.587769
0.58779
0.58781
0.587831
0.587851
0.587851
0.587872
0.587892
0.587913
0.587933
0.587933
0.587954
0.587975
0.587995
0.588016
0.588016
0.588037
0.588057
0.588078
0.588099
0.588099
0.58812
0.58814
0.588161
0.588182
0.588182
0.588203
0.588224
0.588245
0.588266
0.588266
0.588287
0.588308
0.588329
0.58835
0.58835
0.588371
0.588393
0.588414
0.588435
0.588435
0.588456
0.588478
0.588499
0.58852
0.58852
0.588542
0.588563
0.588585
0.588606
0.588606
0.588628
0.588649
0.588671
0.588692
0.588692
0.588714
0.588735
0.588757
0.588779
0.588779
0.5888
0.588822
0.588844
0.588865
0.588865
0.588887
0.588909
0.588931
0.588952
0.588952
0.588974
0.588996
0.589018
0.58904
0.58904
0.589062
0.589084
0.589106
0.589128
0.589128
0.58915
0.589172
0.589194
0.589216
0.589216
0.589238
0.589261
0.589283
0.589305
0.589305
0.589327
0.58935
0.589372
0.589394
0.589394
0.589417
0.589439
0.589461
0.589484
0.589484
0.589506
0.589529
0.589551
0.589574
0.589574
0.589596
0.589619
0.589641
0.589664
0.589664
0.589687
0.589709
0.589732
0.589755
0.589755
0.589777
0.5898
0.589823
0.589846
0.589846
0.589869
0.589891
0.589914
0.589937
0.589937
0.58996
0.589983
0.590007
0.59003
0.59003
0.590053
0.590076
0.590099
0.590123
0.590123
0.590146
0.590169
0.590193
0.590216
0.590216
0.590239
0.590263
0.590286
0.59031
0.59031
0.590333
0.590357
0.59038
0.590404
0.590404
0.590427
0.590451
0.590475
0.590498
0.590498
0.590522
0.590546
0.590569
0.590593
0.590593
0.590617
0.590641
0.590664
0.590688
0.590688
0.590712
0.590736
0.59076
0.590784
0.590784
0.590808
0.590832
0.590856
0.59088
0.59088
0.590904
0.590929
0.590953
0.590977
0.590977
0.591001
0.591025
0.59105
0.591074
0.591074
0.591098
0.591123
0.591147
0.591171
0.591171
0.591196
0.59122
0.591245
0.591269
0.591269
0.591294
0.591318
0.591343
0.591368
0.591368
0.591392
0.591417
0.591442
0.591466
0.591466
0.591491
0.591516
0.591541
0.591565
0.591565
0.59159
0.591615
0.59164
0.591665
0.591665
0.59169
0.591715
0.59174
0.591766
0.591766
0.591791
0.591816
0.591841
0.591867
0.591867
0.591892
0.591917
0.591943
0.591968
0.591968
0.591994
0.592019
0.592045
0.59207
0.59207
0.592096
0.592121
0.592147
0.592172
0.592172
0.592198
0.592224
0.592249
0.592275
0.592275
0.592301
0.592327
0.592353
0.592378
0.592378
0.592404
0.59243
0.592456
0.592482
0.592482
0.592508
0.592534
0.59256
0.592586
0.592586
0.592612
0.592638
0.592665
0.592691
0.592691
0.592717
0.592743
0.59277
0.592796
0.592796
0.592822
0.592849
0.592875
0.592901
0.592901
0.592928
0.592954
0.592981
0.593007
0.593007
0.593034
0.593061
0.593087
0.593114
0.593114
0.593141
0.593167
0.593194
0.593221
0.593221
0.593248
0.593274
0.593301
0.593328
0.593328
0.593355
0.593382
0.593409
0.593436
0.593436
0.593463
0.59349
0.593517
0.593545
0.593545
0.593572
0.593599
0.593627
0.593654
0.593654
0.593681
0.593709
0.593736
0.593764
0.593764
0.593791
0.593819
0.593847
0.593874
0.593874
0.593902
0.59393
0.593957
0.593985
0.593985
0.594013
0.594041
0.594068
0.594096
0.594096
0.594124
0.594152
0.59418
0.594208
0.594208
0.594236
0.594264
0.594292
0.59432
0.59432
0.594348
0.594376
0.594405
0.594433
0.594433
0.594461
0.594489
0.594518
0.594546
0.594546
0.594574
0.594603
0.594631
0.59466
0.59466
0.594688
0.594717
0.594745
0.594774
0.594774
0.594802
0.594831
0.59486
0.594888
0.594888
0.594917
0.594946
0.594975
0.595004
0.595004
0.595032
0.595061
0.59509
0.595119
0.595119
0.595148
0.595177
0.595206
0.595235
0.595235
0.595264
0.595294
0.595323
0.595352
0.595352
0.595381
0.595411
0.59544
0.59547
0.59547
0.595499
0.595529
0.595558
0.595588
0.595588
0.595617
0.595647
0.595677
0.595707
0.595707
0.595736
0.595766
0.595796
0.595826
0.595826
0.595856
0.595886
0.595916
0.595946
0.595946
0.595976
0.596006
0.596036
0.596066
0.596066
0.596096
0.596126
0.596156
0.596187
0.596187
0.596217
0.596247
0.596278
0.596308
0.596308
0.596338
0.596369
0.596399
0.59643
0.59643
0.59646
0.596491
0.596522
0.596552
0.596552
0.596583
0.596614
0.596644
0.596675
0.596675
0.596706
0.596737
0.596768
0.596798
0.596798
0.596829
0.59686
0.596891
0.596922
0.596922
0.596953
0.596984
0.597016
0.597047
0.597047
0.597078
0.597109
0.59714
0.597172
0.597172
0.597203
0.597234
0.597266
0.597297
0.597297
0.597329
0.59736
0.597392
0.597423
0.597423
0.597455
0.597487
0.597519
0.59755
0.59755
0.597582
0.597614
0.597646
0.597678
0.597678
0.59771
0.597742
0.597774
0.597807
0.597807
0.597839
0.597871
0.597903
0.597935
0.597935
0.597968
0.598
0.598032
0.598065
0.598065
0.598097
0.59813
0.598162
0.598195
0.598195
0.598227
0.59826
0.598292
0.598325
0.598325
0.598358
0.59839
0.598423
0.598456
0.598456
0.598489
0.598522
0.598555
0.598587
0.598587
0.59862
0.598653
0.598686
0.59872
0.59872
0.598753
0.598786
0.598819
0.598852
0.598852
0.598885
0.598919
0.598952
0.598985
0.598985
0.599019
0.599052
0.599086
0.599119
0.599119
0.599152
0.599186
0.59922
0.599253
0.599253
0.599287
0.599321
0.599354
0.599388
0.599388
0.599422
0.599456
0.59949
0.599524
0.599524
0.599558
0.599592
0.599626
0.59966
0.59966
0.599694
0.599729
0.599763
0.599797