<?xml version="1.0"?>
<VTKFile type="UnstructuredGrid" version="0.1" byte_order="LittleEndian">
<UnstructuredGrid>
<Piece NumberOfPoints="5000" NumberOfCells="4000">
<PointData Scalars="Reaction 0">
<DataArray type="Float32" Name="Reaction 0" format="ascii">
0.784245
0.784245
0.784245
0.784245
0.784245
0.784245
0.784245
0.784245
0.784245
0.784245
0.784245
0.784245
0.784245
0.784245
0.784245
0.784245
0.784245
0.784245
0.784245
0.784245
0.784245
0.784245
0.784245
0.784245
0.784245
0.784245
0.784245
0.784245
0.784245
0.784245
0.784245
0.784245
0.784245
0.784245
0.784245
0.784245
0.784245
0.784246
0.784246
0.784246
0.784246
0.784246
0.784246
0.784246
0.784246
0.784246
0.784246
0.784246
0.784246
0.784246
0.784246
0.784246
0.784246
0.784246
0.784246
0.784246
0.784246
0.784246
0.784246
0.784247
0.784247
0.784247
0.784247
0.784247
0.784247
0.784247
0.784247
0.784247
0.784247
0.784247
0.784247
0.784247
0.784247
0.784247
0.784247
0.784247
0.784248
0.784248
0.784248
0.784248
0.784248
0.784248
0.784248
0.784248
0.784248
0.784248
0.784248
0.784248
0.784249
0.784249
0.784249
0.784249
0.784249
0.784249
0.784249
0.784249
0.784249
0.784249
0.784249
0.78425
0.78425
0.78425
0.78425
0.78425
0.78425
0.78425
0.78425
0.78425
0.78425
0.784251
0.784251
0.784251
0.784251
0.784251
0.784251
0.784251
0.784251
0.784251
0.784251
0.784252
0.784252
0.784252
0.784252
0.784252
0.784252
0.784252
0.784252
0.784252
0.784253
0.784253
0.784253
0.784253
0.784253
0.784253
0.784253
0.784253
0.784254
0.784254
0.784254
0.784254
0.784254
0.784254
0.784254
0.784254
0.784255
0.784255
0.784255
0.784255
0.784255
0.784255
0.784255
0.784256
0.784256
0.784256
0.784256
0.784256
0.784256
0.784256
0.784257
0.784257
0.784257
0.784257
0.784257
0.784257
0.784258
0.784258
0.784258
0.784258
0.784258
0.784258
0.784258
0.784259
0.784259
0.784259
0.784259
0.784259
0.784259
0.78426
0.78426
0.78426
0.78426
0.78426
0.78426
0.784261
0.784261
0.784261
0.784261
0.784261
0.784261
0.784262
0.784262
0.784262
0.784262
0.784262
0.784263
0.784263
0.784263
0.784263
0.784263
0.784264
0.784264
0.784264
0.784264
0.784264
0.784264
0.784264
0.784265
0.784265
0.784265
0.784265
0.784265
0.784266
0.784266
0.784266
0.784266
0.784266
0.784267
0.784267
0.784267
0.784267
0.784267
0.784268
0.784268
0.784268
0.784268
0.784268
0.784269
0.784269
0.784269
0.78427
0.78427
0.78427
0.78427
0.78427
0.784271
0.784271
0.784271
0.784271
0.784271
0.784272
0.784272
0.784272
0.784272
0.784273
0.784273
0.784273
0.784273
0.784273
0.784274
0.784274
0.784274
0.784274
0.784275
0.784275
0.784275
0.784275
0.784275
0.784276
0.784276
0.784276
0.784276
0.784277
0.784277
0.784277
0.784278
0.784278
0.784278
0.784278
0.784279
0.784279
0.784279
0.784279
0.784279
0.78428
0.78428
0.78428
0.78428
0.784281
0.784281
0.784281
0.784281
0.784282
0.784282
0.784282
0.784283
0.784283
0.784283
0.784283
0.784284
0.784284
0.784284
0.784284
0.784285
0.784285
0.784285
0.784285
0.784286
0.784286
0.784286
0.784287
0.784287
0.784287
0.784288
0.784288
0.784288
0.784288
0.784289
0.784289
0.784289
0.78429
0.78429
0.78429
0.78429
0.784291
0.784291
0.784291
0.784291
0.784292
0.784292
0.784293
0.784293
0.784293
0.784293
0.784294
0.784294
0.784294
0.784294
0.784295
0.784295
0.784296
0.784296
0.784296
0.784296
0.784297
0.784297
0.784297
0.784298
0.784298
0.784298
0.784299
0.784299
0.784299
0.7843
0.7843
0.7843
0.7843
0.784301
0.784301
0.784302
0.784302
0.784302
0.784302
0.784303
0.784303
0.784304
0.784304
0.784304
0.784304
0.784305
0.784305
0.784305
0.784306
0.784306
0.784307
0.784307
0.784307
0.784307
0.784308
0.784308
0.784309
0.784309
0.784309
0.78431
0.78431
0.78431
0.78431
0.784311
0.784311
0.784312
0.784312
0.784312
0.784313
0.784313
0.784314
0.784314
0.784314
0.784314
0.784315
0.784315
0.784316
0.784316
0.784316
0.784317
0.784317
0.784318
0.784318
0.784318
0.784319
0.784319
0.784319
0.784319
0.78432
0.78432
0.784321
0.784321
0.784321
0.784322
0.784322
0.784323
0.784323
0.784323
0.784324
0.784324
0.784325
0.784325
0.784325
0.784326
0.784326
0.784327
0.784327
0.784327
0.784328
0.784328
0.784329
0.784329
0.784329
0.78433
0.78433
0.784331
0.784331
0.784331
0.784332
0.784332
0.784333
0.784333
0.784333
0.784334
0.784334
0.784335
0.784335
0.784335
0.784336
0.784336
0.784337
0.784337
0.784337
0.784338
0.784338
0.784339
0.784339
0.784339
0.78434
0.78434
0.784341
0.784341
0.784341
0.784342
0.784342
0.784343
0.784343
0.784343
0.784344
0.784345
0.784345
0.784346
0.784346
0.784346
0.784347
0.784347
0.784348
0.784348
0.784348
0.784349
0.784349
0.78435
0.78435
0.78435
0.784351
0.784352
0.784352
0.784352
0.784353
0.784353
0.784354
0.784354
0.784354
0.784355
0.784355
0.784356
0.784357
0.784357
0.784357
0.784358
0.784358
0.784359
0.784359
0.784359
0.78436
0.784361
0.784361
0.784361
0.784362
0.784362
0.784363
0.784364
0.784364
0.784364
0.784365
0.784365
0.784366
0.784366
0.784366
0.784367
0.784368
0.784368
0.784368
0.784369
0.784369
0.78437
0.784371
0.784371
0.784371
0.784372
0.784372
0.784373
0.784373
0.784374
0.784374
0.784375
0.784375
0.784375
0.784376
0.784377
0.784377
0.784378
0.784378
0.784378
0.784379
0.78438
0.78438
0.78438
0.784381
0.784382
0.784382
0.784383
0.784383
0.784383
0.784384
0.784385
0.784385
0.784385
0.784386
0.784387
0.784387
0.784388
0.784388
0.784388
0.784389
0.78439
0.78439
0.78439
0.784391
0.784392
0.784392
0.784393
0.784393
0.784394
0.784394
0.784395
0.784395
0.784395
0.784396
0.784397
0.784397
0.784398
0.784398
0.784399
0.784399
0.7844
0.784401
0.784401
0.784401
0.784402
0.784403
0.784403
0.784403
0.784404
0.784405
0.784405
0.784406
0.784406
0.784407
0.784407
0.784408
0.784409
0.784409
0.784409
0.78441
0.784411
0.784411
0.784411
0.784412
0.784413
0.784414
0.784414
0.784414
0.784415
0.784416
0.784416
0.784417
0.784417
0.784418
0.784418
0.784419
0.78442
0.78442
0.78442
0.784421
0.784422
0.784423
0.784423
0.784423
0.784424
0.784425
0.784425
0.784425
0.784426
0.784427
0.784428
0.784428
0.784428
0.784429
0.78443
0.78443
0.784431
0.784431
0.784432
0.784433
0.784433
0.784434
0.784434
0.784435
0.784436
0.784436
0.784437
0.784437
0.784438
0.784439
0.784439
0.78444
0.78444
0.784441
0.784441
0.784442
0.784443
0.784443
0.784444
0.784444
0.784445
0.784446
0.784446
0.784447
0.784447
0.784448
0.784449
0.784449
0.78445
0.784451
0.784451
0.784452
0.784452
0.784453
0.784454
0.784454
0.784455
0.784455
0.784456
0.784457
0.784457
0.784458
0.784458
0.784459
0.78446
0.784461
0.784461
0.784461
0.784462
0.784463
0.784464
0.784464
0.784464
0.784465
0.784466
0.784467
0.784468
0.784468
0.784468
0.784469
0.78447
0.784471
0.784471
0.784472
0.784472
0.784473
0.784474
0.784474
0.784475
0.784476
0.784476
0.784477
0.784477
0.784478
0.784479
0.78448
0.78448
0.78448
0.784481
0.784482
0.784483
0.784484
0.784484
0.784485
0.784485
0.784486
0.784487
0.784487
0.784488
0.784489
0.78449
0.78449
0.78449
0.784491
0.784492
0.784493
0.784494
0.784494
0.784495
0.784495
0.784496
0.784497
0.784497
0.784498
0.784499
0.7845
0.7845
0.7845
0.784501
0.784502
0.784503
0.784504
0.784504
0.784505
0.784506
0.784506
0.784507
0.784507
0.784508
0.784509
0.78451
0.784511
0.784511
0.784512
0.784513
0.784513
0.784514
0.784514
0.784515
0.784516
0.784517
0.784518
0.784518
0.784519
0.78452
0.78452
0.784521
0.784521
0.784522
0.784523
0.784524
0.784525
0.784525
0.784526
0.784527
0.784528
0.784528
0.784528
0.784529
0.78453
0.784531
0.784532
0.784532
0.784533
0.784534
0.784535
0.784536
0.784536
0.784537
0.784537
0.784538
0.784539
0.784539
0.78454
0.784541
0.784542
0.784543
0.784543
0.784544
0.784545
0.784546
0.784547
0.784547
0.784548
0.784549
0.784549
0.78455
0.78455
0.784551
0.784552
0.784553
0.784554
0.784554
0.784555
0.784556
0.784557
0.784558
0.784558
0.784559
0.78456
0.784561
0.784562
0.784562
0.784563
0.784564
0.784565
0.784565
0.784565
0.784566
0.784567
0.784568
0.784569
0.784569
0.78457
0.784571
0.784572
0.784573
0.784573
0.784574
0.784575
0.784576
0.784577
0.784577
0.784578
0.784579
0.78458
0.784581
0.784581
0.784582
0.784583
0.784584
0.784585
0.784585
0.784586
0.784587
0.784588
0.784589
0.784589
0.78459
0.784591
0.784592
0.784593
0.784593
0.784594
0.784595
0.784596
0.784597
0.784597
0.784598
0.784599
0.7846
0.784601
0.784601
0.784602
0.784603
0.784604
0.784605
0.784605
0.784606
0.784607
0.784608
0.784609
0.784609
0.78461
0.784611
0.784612
0.784613
0.784613
0.784614
0.784615
0.784616
0.784617
0.784617
0.784618
0.784619
0.78462
0.784621
0.784621
0.784622
0.784623
0.784624
0.784625
0.784625
0.784626
0.784627
0.784628
0.78463
0.78463
0.784631
0.784632
0.784633
0.784634
0.784634
0.784635
0.784636
0.784637
0.784638
0.784638
0.784639
0.78464
0.784641
0.784642
0.784642
0.784643
0.784644
0.784645
0.784646
0.784646
0.784648
0.784649
0.78465
0.784651
0.784651
0.784652
0.784653
0.784654
0.784655
0.784655
0.784656
0.784657
0.784658
0.784659
0.784659
0.78466
0.784662
0.784663
0.784664
0.784664
0.784665
0.784666
0.784667
0.784668
0.784668
0.784669
0.78467
0.784671
0.784673
0.784673
0.784674
0.784675
0.784676
0.784677
0.784677
0.784678
0.784679
0.78468
0.784681
0.784681
0.784683
0.784684
0.784685
0.784686
0.784686
0.784687
0.784688
0.784689
0.78469
0.78469
0.784692
0.784693
0.784694
0.784695
0.784695
0.784696
0.784697
0.784698
0.784699
0.784699
0.784701
0.784702
0.784703
0.784704
0.784704
0.784705
0.784706
0.784708
0.784709
0.784709
0.78471
0.784711
0.784712
0.784713
0.784713
0.784714
0.784716
0.784717
0.784718
0.784718
0.784719
0.78472
0.784721
0.784723
0.784723
0.784724
0.784725
0.784726
0.784727
0.784727
0.784728
0.78473
0.784731
0.784732
0.784732
0.784733
0.784734
0.784736
0.784737
0.784737
0.784738
0.784739
0.78474
0.784741
0.784741
0.784743
0.784744
0.784745
0.784746
0.784746
0.784747
0.784749
0.78475
0.784751
0.784751
0.784752
0.784753
0.784755
0.784756
0.784756
0.784757
0.784758
0.78476
0.784761
0.784761
0.784762
0.784763
0.784764
0.784766
0.784766
0.784767
0.784768
0.784769
0.784771
0.784771
0.784772
0.784773
0.784774
0.784775
0.784775
0.784777
0.784778
0.784779
0.78478
0.78478
0.784782
0.784783
0.784784
0.784785
0.784785
0.784787
0.784788
0.784789
0.78479
0.78479
0.784792
0.784793
0.784794
0.784795
0.784795
0.784797
0.784798
0.784799
0.7848
0.7848
0.784802
0.784803
0.784804
0.784805
0.784805
0.784807
0.784808
0.784809
0.78481
0.78481
0.784812
0.784813
0.784814
0.784815
0.784815
0.784817
0.784818
0.784819
0.78482
0.78482
0.784822
0.784823
0.784824
0.784825
0.784825
0.784827
0.784828
0.784829
0.78483
0.78483
0.784832
0.784833
0.784834
0.784836
0.784836
0.784837
0.784838
0.78484
0.784841
0.784841
0.784842
0.784844
0.784845
0.784846
0.784846
0.784847
0.784849
0.78485
0.784851
0.784851
0.784853
0.784854
0.784855
0.784857
0.784857
0.784858
0.784859
0.784861
0.784862
0.784862
0.784863
0.784864
0.784866
0.784867
0.784867
0.784868
0.78487
0.784871
0.784872
0.784872
0.784874
0.784875
0.784876
0.784878
0.784878
0.784879
0.78488
0.784882
0.784883
0.784883
0.784884
0.784886
0.784887
0.784888
0.784888
0.78489
0.784891
0.784892
0.784894
0.784894
0.784895
0.784896
0.784898
0.784899
0.784899
0.7849
0.784902
0.784903
0.784904
0.784904
0.784906
0.784907
0.784908
0.78491
0.78491
0.784911
0.784913
0.784914
0.784915
0.784915
0.784917
0.784918
0.784919
0.784921
0.784921
0.784922
0.784923
0.784925
0.784926
0.784926
0.784928
0.784929
0.78493
0.784932
0.784932
0.784933
0.784934
0.784936
0.784937
0.784937
0.784939
0.78494
0.784941
0.784943
0.784943
0.784944
0.784946
0.784947
0.784948
0.784948
0.78495
0.784951
0.784953
0.784954
0.784954
0.784955
0.784957
0.784958
0.78496
0.78496
0.784961
0.784962
0.784964
0.784965
0.784965
0.784967
0.784968
0.784969
0.784971
0.784971
0.784972
0.784974
0.784975
0.784977
0.784977
0.784978
0.784979
0.784981
0.784982
0.784982
0.784984
0.784985
0.784987
0.784988
0.784988
0.784989
0.784991
0.784992
0.784994
0.784994
0.784995
0.784997
0.784998
0.785
0.785
0.785001
0.785002
0.785004
0.785005
0.785005
0.785007
0.785008
0.78501
0.785011
0.785011
0.785013
0.785014
0.785016
0.785017
0.785017
0.785018
0.78502
0.785021
0.785023
0.785023
0.785024
0.785026
0.785027
0.785029
0.785029
0.78503
0.785032
0.785033
0.785035
0.785035
0.785036
0.785038
0.785039
0.785041
0.785041
0.785042
0.785044
0.785045
0.785047
0.785047
0.785048
0.78505
0.785051
0.785053
0.785053
0.785054
0.785056
0.785057
0.785059
0.785059
0.78506
0.785062
0.785063
0.785065
0.785065
0.785066
0.785068
0.785069
0.785071
0.785071
0.785072
0.785074
0.785075
0.785077
0.785077
0.785078
0.78508
0.785081
0.785083
0.785083
0.785084
0.785086
0.785087
0.785089
0.785089
0.78509
0.785092
0.785094
0.785095
0.785095
0.785097
0.785098
0.7851
0.785101
0.785101
0.785103
0.785104
0.785106
0.785107
0.785107
0.785109
0.785111
0.785112
0.785114
0.785114
0.785115
0.785117
0.785118
0.78512
0.78512
0.785121
0.785123
0.785125
0.785126
0.785126
0.785128
0.785129
0.785131
0.785132
0.785132
0.785134
0.785136
0.785137
0.785139
0.785139
0.78514
0.785142
0.785144
0.785145
0.785145
0.785147
0.785148
0.78515
0.785151
0.785151
0.785153
0.785155
0.785156
0.785158
0.785158
0.785159
0.785161
0.785163
0.785164
0.785164
0.785166
0.785167
0.785169
0.785171
0.785171
0.785172
0.785174
0.785176
0.785177
0.785177
0.785179
0.78518
0.785182
0.785184
0.785184
0.785185
0.785187
0.785188
0.78519
0.78519
0.785192
0.785193
0.785195
0.785197
0.785197
0.785198
0.7852
0.785202
0.785203
0.785203
0.785205
0.785206
0.785208
0.78521
0.78521
0.785211
0.785213
0.785215
0.785216
0.785216
0.785218
0.78522
0.785221
0.785223
0.785223
0.785225
0.785226
0.785228
0.78523
0.78523
0.785231
0.785233
0.785235
0.785236
0.785236
0.785238
0.78524
0.785241
0.785243
0.785243
0.785245
0.785246
0.785248
0.78525
0.78525
0.785251
0.785253
0.785255
0.785256
0.785256
0.785258
0.78526
0.785261
0.785263
0.785263
0.785265
0.785266
0.785268
0.78527
0.78527
0.785271
0.785273
0.785275
0.785276
0.785276
0.785278
0.78528
0.785281
0.785283
0.785283
0.785285
0.785286
0.785288
0.78529
0.78529
0.785291
0.785293
0.785295
0.785296
0.785296
0.785298
0.7853
0.785302
0.785303
0.785303
0.785305
0.785307
0.785308
0.78531
0.78531
0.785312
0.785314
0.785315
0.785317
0.785317
0.785319
0.785321
0.785322
0.785324
0.785324
0.785326
0.785328
0.785329
0.785331
0.785331
0.785333
0.785334
0.785336
0.785338
0.785338
0.78534
0.785341
0.785343
0.785345
0.785345
0.785347
0.785348
0.78535
0.785352
0.785352
0.785354
0.785355
0.785357
0.785359
0.785359
0.785361
0.785362
0.785364
0.785366
0.785366
0.785368
0.785369
0.785371
0.785373
0.785373
0.785375
0.785376
0.785378
0.78538
0.78538
0.785382
0.785383
0.785385
0.785387
0.785387
0.785389
0.78539
0.785392
0.785394
0.785394
0.785396
0.785398
0.785399
0.785401
0.785401
0.785403
0.785405
0.785406
0.785408
0.785408
0.78541
0.785412
0.785413
0.785415
0.785415
0.785417
0.785419
0.785421
0.785422
0.785422
0.785424
0.785426
0.785428
0.78543
0.78543
0.785431
0.785433
0.785435
0.785437
0.785437
0.785439
0.78544
0.785442
0.785444
0.785444
0.785446
0.785448
0.785449
0.785451
0.785451
0.785453
0.785455
0.785457
0.785458
0.785458
0.78546
0.785462
0.785464
0.785466
0.785466
0.785468
0.785469
0.785471
0.785473
0.785473
0.785475
0.785477
0.785479
0.78548
0.78548
0.785482
0.785484
0.785486
0.785488
0.785488
0.78549
0.785491
0.785493
0.785495
0.785495
0.785497
0.785499
0.785501
0.785503
0.785503
0.785504
0.785506
0.785508
0.78551
0.78551
0.785512
0.785514
0.785516
0.785517
0.785517
0.785519
0.785521
0.785523
0.785525
0.785525
0.785527
0.785529
0.78553
0.785532
0.785532
0.785534
0.785536
0.785538
0.78554
0.78554
0.785542
0.785544
0.785546
0.785547
0.785547
0.785549
0.785551
0.785553
0.785555
0.785555
0.785557
0.785559
0.785561
0.785563
0.785563
0.785564
0.785566
0.785568
0.78557
0.78557
0.785572
0.785574
0.785576
0.785578
0.785578
0.78558
0.785582
0.785584
0.785585
0.785585
0.785587
0.785589
0.785591
0.785593
0.785593
0.785595
0.785597
0.785599
0.785601
0.785601
0.785603
0.785605
0.785607
0.785609
0.785609
0.78561
0.785612
0.785614
0.785616
0.785616
0.785618
0.78562
0.785622
0.785624
0.785624
0.785626
0.785628
0.78563
0.785632
0.785632
0.785634
0.785636
0.785638
0.78564
0.78564
0.785642
0.785644
0.785646
0.785648
0.785648
0.785649
0.785651
0.785653
0.785655
0.785655
0.785657
0.785659
0.785661
0.785663
0.785663
0.785665
0.785667
0.785669
0.785671
0.785671
0.785673
0.785675
0.785677
0.785679
0.785679
0.785681
0.785683
0.785685
0.785687
0.785687
0.785689
0.785691
0.785693
0.785695
0.785695
0.785697
0.785699
0.785701
0.785703
0.785703
0.785705
0.785707
0.785709
0.785711
0.785711
0.785713
0.785715
0.785717
0.785719
0.785719
0.785721
0.785723
0.785725
0.785727
0.785727
0.785729
0.785731
0.785733
0.785735
0.785735
0.785737
0.785739
0.785741
0.785743
0.785743
0.785745
0.785747
0.785749
0.785751
0.785751
0.785753
0.785755
0.785757
0.785759
0.785759
0.785761
0.785763
0.785765
0.785767
0.785767
0.785769
0.785771
0.785773
0.785775
0.785775
0.785777
0.785779
0.785781
0.785783
0.785783
0.785785
0.785788
0.78579
0.785792
0.785792
0.785794
0.785796
0.785798
0.7858
0.7858
0.785802
0.785804
0.785806
0.785808
0.785808
0.78581
0.785812
0.785814
0.785816
0.785816
0.785819
0.785821
0.785823
0.785825
0.785825
0.785827
0.785829
0.785831
0.785833
0.785833
0.785835
0.785837
0.785839
0.785841
0.785841
0.785843
0.785845
0.785848
0.78585
0.78585
0.785852
0.785854
0.785856
0.785858
0.785858
0.78586
0.785862
0.785864
0.785866
0.785866
0.785868
0.78587
0.785873
0.785875
0.785875
0.785877
0.785879
0.785881
0.785883
0.785883
0.785885
0.785887
0.785889
0.785891
0.785891
0.785893
0.785896
0.785898
0.7859
0.7859
0.785902
0.785904
0.785906
0.785908
0.785908
0.78591
0.785912
0.785915
0.785917
0.785917
0.785919
0.785921
0.785923
0.785925
0.785925
0.785927
0.785929
0.785932
0.785934
0.785934
0.785936
0.785938
0.78594
0.785942
0.785942
0.785944
0.785946
0.785949
0.785951
0.785951
0.785953
0.785955
0.785957
0.785959
0.785959
0.785961
0.785964
0.785966
0.785968
0.785968
0.78597
0.785972
0.785974
0.785976
0.785976
0.785979
0.785981
0.785983
0.785985
0.785985
0.785987
0.785989
0.785992
0.785994
0.785994
0.785996
0.785998
0.786
0.786002
0.786002
0.786005
0.786007
0.786009
0.786011
0.786011
0.786013
0.786016
0.786018
0.78602
0.78602
0.786022
0.786024
0.786026
0.786029
0.786029
0.786031
0.786033
0.786035
0.786037
0.786037
0.78604
0.786042
0.786044
0.786046
0.786046
0.786048
0.786051
0.786053
0.786055
0.786055
0.786057
0.786059
0.786062
0.786064
0.786064
0.786066
0.786068
0.786071
0.786073
0.786073
0.786075
0.786077
0.786079
0.786082
0.786082
0.786084
0.786086
0.786088
0.786091
0.786091
0.786093
0.786095
0.786097
0.786099
0.786099
0.786102
0.786104
0.786106
0.786108
0.786108
0.786111
0.786113
0.786115
0.786117
0.786117
0.78612
0.786122
0.786124
0.786126
0.786126
0.786129
0.786131
0.786133
0.786135
0.786135
0.786138
0.78614
0.786142
0.786144
0.786144
0.786147
0.786149
0.786151
0.786154
0.786154
0.786156
0.786158
0.78616
0.786163
0.786163
0.786165
0.786167
0.786169
0.786172
0.786172
0.786174
0.786176
0.786179
0.786181
0.786181
0.786183
0.786185
0.786188
0.78619
0.78619
0.786192
0.786194
0.786197
0.786199
0.786199
0.786201
0.786204
0.786206
0.786208
0.786208
0.78621
0.786213
0.786215
0.786217
0.786217
0.78622
0.786222
0.786224
0.786226
0.786226
0.786229
0.786231
0.786233
0.786235
0.786235
0.786238
0.78624
0.786242
0.786245
0.786245
0.786247
0.786249
0.786252
0.786254
0.786254
0.786256
0.786259
0.786261
0.786263
0.786263
0.786266
0.786268
0.78627
0.786273
0.786273
0.786275
0.786277
0.78628
0.786282
0.786282
0.786284
0.786287
0.786289
0.786291
0.786291
0.786294
0.786296
0.786298
0.786301
0.786301
0.786303
0.786306
0.786308
0.78631
0.78631
0.786313
0.786315
0.786317
0.78632
0.78632
0.786322
0.786324
0.786327
0.786329
0.786329
0.786331
0.786334
0.786336
0.786338
0.786338
0.786341
0.786343
0.786345
0.786348
0.786348
0.78635
0.786353
0.786355
0.786357
0.786357
0.78636
0.786362
0.786364
0.786367
0.786367
0.786369
0.786371
0.786374
0.786376
0.786376
0.786379
0.786381
0.786383
0.786386
0.786386
0.786388
0.78639
0.786393
0.786395
0.786395
0.786398
0.7864
0.786402
0.786405
0.786405
0.786407
0.78641
0.786412
0.786414
0.786414
0.786417
0.786419
0.786422
0.786424
0.786424
0.786426
0.786429
0.786431
0.786434
0.786434
0.786436
0.786438
0.786441
0.786443
0.786443
0.786446
0.786448
0.78645
0.786453
0.786453
0.786455
0.786458
0.78646
0.786463
0.786463
0.786465
0.786467
0.78647
0.786472
0.786472
0.786475
0.786477
0.786479
0.786482
0.786482
0.786484
0.786487
0.786489
0.786492
0.786492
0.786494
0.786497
0.786499
0.786501
0.786501
0.786504
0.786506
0.786509
0.786511
0.786511
0.786514
0.786516
0.786519
0.786521
0.786521
0.786524
0.786526
0.786528
0.786531
0.786531
0.786533
0.786536
0.786538
0.786541
0.786541
0.786543
0.786546
0.786548
0.786551
0.786551
0.786553
0.786556
0.786558
0.786561
0.786561
0.786563
0.786566
0.786568
0.786571
0.786571
0.786573
0.786575
0.786578
0.78658
0.78658
0.786583
0.786585
0.786588
0.78659
0.78659
0.786593
0.786595
0.786598
0.7866
0.7866
0.786603
0.786605
0.786608
0.78661
0.78661
0.786613
0.786615
0.786618
0.78662
0.78662
0.786623
0.786625
0.786628
0.786631
0.786631
0.786633
0.786636
0.786638
0.786641
0.786641
0.786643
0.786646
0.786648
0.786651
0.786651
0.786653
0.786656
0.786658
0.786661
0.786661
0.786663
0.786666
0.786668
0.786671
0.786671
0.786673
0.786676
0.786678
0.786681
0.786681
0.786683
0.786686
0.786688
0.786691
0.786691
0.786693
0.786696
0.786698
0.786701
0.786701
0.786703
0.786706
0.786708
0.786711
0.786711
0.786714
0.786716
0.786719
0.786721
0.786721
0.786724
0.786726
0.786729
0.786732
0.786732
0.786734
0.786737
0.786739
0.786742
0.786742
0.786744
0.786747
0.78675
0.786752
0.786752
0.786755
0.786757
0.78676
0.786763
0.786763
0.786765
0.786768
0.78677
0.786773
0.786773
0.786776
0.786778
0.786781
0.786783
0.786783
0.786786
0.786788
0.786791
0.786794
0.786794
0.786796
0.786799
0.786801
0.786804
0.786804
0.786807
0.786809
0.786812
0.786814
0.786814
0.786817
0.786819
0.786822
0.786825
0.786825
0.786827
0.78683
0.786832
0.786835
0.786835
0.786838
0.78684
0.786843
0.786845
0.786845
0.786848
0.786851
0.786853
0.786856
0.786856
0.786859
0.786861
0.786864
0.786866
0.786866
0.786869
0.786872
0.786874
0.786877
0.786877
0.786879
0.786882
0.786885
0.786887
0.786887
0.78689
0.786893
0.786895
0.786898
0.786898
0.7869
0.786903
0.786906
0.786908
0.786908
0.786911
0.786914
0.786916
0.786919
0.786919
0.786922
0.786924
0.786927
0.78693
0.78693
0.786932
0.786935
0.786937
0.78694
0.78694
0.786943
0.786945
0.786948
0.786951
0.786951
0.786953
0.786956
0.786959
0.786961
0.786961
0.786964
0.786967
0.786969
0.786972
0.786972
0.786975
0.786977
0.78698
0.786983
0.786983
0.786985
0.786988
0.786991
0.786994
0.786994
0.786996
0.786999
0.787002
0.787004
0.787004
0.787007
0.78701
0.787012
0.787015
0.787015
0.787018
0.78702
0.787023
0.787026
0.787026
0.787029
0.787031
0.787034
0.787037
0.787037
0.787039
0.787042
0.787045
0.787047
0.787047
0.78705
0.787053
0.787056
0.787058
0.787058
0.787061
0.787064
0.787066
0.787069
0.787069
0.787072
0.787075
0.787077
0.78708
0.78708
0.787083
0.787086
0.787088
0.787091
0.787091
0.787094
0.787096
0.787099
0.787102
0.787102
0.787105
0.787107
0.78711
0.787113
0.787113
0.787115
0.787118
0.787121
0.787124
0.787124
0.787126
0.787129
0.787132
0.787135
0.787135
0.787137
0.78714
0.787143
0.787145
0.787145
0.787148
0.787151
0.787154
0.787156
0.787156
0.787159
0.787162
0.787164
0.787167
0.787167
0.78717
0.787173
0.787175
0.787178
0.787178
0.787181
0.787184
0.787187
0.787189
0.787189
0.787192
0.787195
0.787198
0.787201
0.787201
0.787203
0.787206
0.787209
0.787212
0.787212
0.787215
0.787217
0.78722
0.787223
0.787223
0.787226
0.787229
0.787231
0.787234
0.787234
0.787237
0.78724
0.787243
0.787245
0.787245
0.787248
0.787251
0.787254
0.787257
0.787257
0.787259
0.787262
0.787265
0.787268
0.787268
0.787271
0.787273
0.787276
0.787279
0.787279
0.787282
0.787285
0.787287
0.78729
0.78729
0.787293
0.787296
0.787299
0.787301
0.787301
0.787304
0.787307
0.78731
0.787313
0.787313
0.787315
0.787318
0.787321
0.787324
0.787324
0.787327
0.78733
0.787332
0.787335
0.787335
0.787338
0.787341
0.787344
0.787346
0.787346
0.787349
0.787352
0.787355
0.787358
0.787358
0.787361
0.787363
0.787366
0.787369
0.787369
0.787372
0.787375
0.787378
0.787381
0.787381
0.787383
0.787386
0.787389
0.787392
0.787392
0.787395
0.787398
0.7874
0.787403
0.787403
0.787406
0.787409
0.787412
0.787415
0.787415
0.787418
0.787421
0.787423
0.787426
0.787426
0.787429
0.787432
0.787435
0.787438
0.787438
0.787441
0.787444
0.787446
0.787449
0.787449
0.787452
0.787455
0.787458
0.787461
0.787461
0.787464
0.787467
0.787469
0.787472
0.787472
0.787475
0.787478
0.787481
0.787484
0.787484
0.787487
0.78749
0.787493
0.787496
0.787496
0.787498
0.787501
0.787504
0.787507
0.787507
0.78751
0.787513
0.787516
0.787519
0.787519
0.787522
0.787525
0.787527
0.78753
0.78753
0.787533
0.787536
0.787539
0.787542
0.787542
0.787545
0.787548
0.787551
0.787554
0.787554
0.787557
0.78756
0.787562
0.787565
0.787565
0.787568
0.787571
0.787574
0.787577
0.787577
0.78758
0.787583
0.787586
0.787589
0.787589
0.787592
0.787595
0.787597
0.7876
0.7876
0.787603
0.787606
0.787609
0.787612
0.787612
0.787615
0.787618
0.787621
0.787624
0.787624
0.787627
0.78763
0.787632
0.787635
0.787635
0.787638
0.787641
0.787644
0.787647
0.787647
0.78765
0.787653
0.787656
0.787659
0.787659
0.787662
0.787665
0.787668
0.787671
0.787671
0.787674
0.787677
0.78768
0.787683
0.787683
0.787686
0.787689
0.787692
0.787695
0.787695
0.787698
0.787701
0.787704
0.787707
0.787707
0.78771
0.787713
0.787716
0.787719
0.787719
0.787722
0.787725
0.787728
0.787731
0.787731
0.787734
0.787737
0.78774
0.787743
0.787743
0.787746
0.787749
0.787752
0.787755
0.787755
0.787758
0.787761
0.787764
0.787767
0.787767
0.78777
0.787773
0.787776
0.787779
0.787779
0.787782
0.787785
0.787788
0.787791
0.787791
0.787794
0.787797
0.7878
0.787803
0.787803
0.787806
0.787809
0.787812
0.787815
0.787815
0.787818
0.787821
0.787824
0.787827
0.787827
0.78783
0.787833
0.787836
0.787839
0.787839
0.787843
0.787846
0.787849
0.787852
0.787852
0.787855
0.787858
0.787861
0.787864
0.787864
0.787867
0.78787
0.787873
0.787876
0.787876
0.787879
0.787882
0.787885
0.787888
0.787888
0.787891
0.787894
0.787897
0.7879
0.7879
0.787903
0.787907
0.78791
0.787913
0.787913
0.787916
0.787919
0.787922
0.787925
0.787925
0.787928
0.787931
0.787934
0.787937
0.787937
0.78794
0.787943
0.787946
0.78795
0.78795
0.787953
0.787956
0.787959
0.787962
0.787962
0.787965
0.787968
0.787971
0.787974
0.787974
0.787977
0.78798
0.787984
0.787987
0.787987
0.78799
0.787993
0.787996
0.787999
0.787999
0.788002
0.788005
0.788008
0.788011
0.788011
0.788014
0.788018
0.788021
0.788024
0.788024
0.788027
0.78803
0.788033
0.788036
0.788036
0.788039
0.788042
0.788045
0.788048
0.788048
0.788051
0.788055
0.788058
0.788061
0.788061
0.788064
0.788067
0.78807
0.788073
0.788073
0.788076
0.788079
0.788082
0.788085
0.788085
0.788089
0.788092
0.788095
0.788098
0.788098
0.788101
0.788104
0.788108
0.788111
0.788111
0.788114
0.788117
0.78812
0.788123
0.788123
0.788127
0.78813
0.788133
0.788136
0.788136
0.788139
0.788143
0.788146
0.788149
0.788149
0.788152
0.788155
0.788158
0.788162
0.788162
0.788165
0.788168
0.788171
0.788174
0.788174
0.788177
0.788181
0.788184
0.788187
0.788187
0.78819
0.788193
0.788196
0.7882
0.7882
0.788203
0.788206
0.788209
0.788212
0.788212
0.788215
0.788219
0.788222
0.788225
0.788225
0.788228
0.788231
0.788235
0.788238
0.788238
0.788241
0.788244
0.788247
0.78825
0.78825
0.788254
0.788257
0.78826
0.788263
0.788263
0.788266
0.78827
0.788273
0.788276
0.788276
0.788279
0.788282
0.788286
0.788289
0.788289
0.788292
0.788295
0.788298
0.788302
0.788302
0.788305
0.788308
0.788311
0.788314
0.788314
0.788318
0.788321
0.788324
0.788327
0.788327
0.788331
0.788334
0.788337
0.78834
0.78834
0.788343
0.788347
0.78835
0.788353
0.788353
0.788356
0.78836
0.788363
0.788366
0.788366
0.788369
0.788373
0.788376
0.788379
0.788379
0.788382
0.788385
0.788389
0.788392
0.788392
0.788395
0.788398
0.788402
0.788405
0.788405
0.788408
0.788411
0.788415
0.788418
0.788418
0.788421
0.788424
0.788428
0.788431
0.788431
0.788434
0.788437
0.788441
0.788444
0.788444
0.788447
0.788451
0.788454
0.788457
0.788457
0.78846
0.788464
0.788467
0.78847
0.78847
0.788473
0.788477
0.78848
0.788483
0.788483
0.788486
0.78849
0.788493
0.788496
0.788496
0.788499
0.788503
0.788506
0.788509
0.788509
0.788512
0.788515
0.788519
0.788522
0.788522
0.788525
0.788529
0.788532
0.788535
0.788535
0.788538
0.788542
0.788545
0.788548
0.788548
0.788552
0.788555
0.788558
0.788562
0.788562
0.788565
0.788568
0.788572
0.788575
0.788575
0.788578
0.788582
0.788585
0.788588
0.788588
0.788592
0.788595
0.788598
0.788602
0.788602
0.788605
0.788608
0.788612
0.788615
0.788615
0.788618
0.788622
0.788625
0.788628
0.788628
0.788632
0.788635
0.788638
0.788642
0.788642
0.788645
0.788649
0.788652
0.788655
0.788655
0.788659
0.788662
0.788665
0.788669
0.788669
0.788672
0.788675
0.788679
0.788682
0.788682
0.788685
0.788689
0.788692
0.788695
0.788695
0.788699
0.788702
0.788705
0.788709
0.788709
0.788712
0.788715
0.788719
0.788722
0.788722
0.788725
0.788729
0.788732
0.788736
0.788736
0.788739
0.788742
0.788746
0.788749
0.788749
0.788752
0.788756
0.788759
0.788763
0.788763
0.788766
0.788769
0.788773
0.788776
0.788776
0.788779
0.788783
0.788786
0.78879
0.78879
0.788793
0.788796
0.7888
0.788803
0.788803
0.788806
0.78881
0.788813
0.788817
0.788817
0.78882
0.788823
0.788827
0.78883
0.78883
0.788834
0.788837
0.78884
0.788844
0.788844
0.788847
0.788851
0.788854
0.788857
0.788857
0.788861
0.788864
0.788868
0.788871
0.788871
0.788875
0.788878
0.788881
0.788885
0.788885
0.788888
0.788892
0.788895
0.788898
0.788898
0.788902
0.788905
0.788909
0.788912
0.788912
0.788915
0.788919
0.788922
0.788926
0.788926
0.788929
0.788932
0.788936
0.788939
0.788939
0.788943
0.788946
0.788949
0.788953
0.788953
0.788956
0.78896
0.788963
0.788966
0.788966
0.78897
0.788973
0.788977
0.78898
0.78898
0.788984
0.788987
0.788991
0.788994
0.788994
0.788998
0.789001
0.789005
0.789008
0.789008
0.789012
0.789015
0.789019
0.789022
0.789022
0.789026
0.789029
0.789033
0.789036
0.789036
0.78904
0.789043
0.789047
0.78905
0.78905
0.789054
0.789057
0.789061
0.789064
0.789064
0.789067
0.789071
0.789074
0.789078
0.789078
0.789081
0.789085
0.789088
0.789092
0.789092
0.789095
0.789099
0.789102
0.789106
0.789106
0.789109
0.789113
0.789116
0.78912