<?xml version="1.0"?>
<VTKFile type="UnstructuredGrid" version="0.1" byte_order="LittleEndian">
<UnstructuredGrid>
<Piece NumberOfPoints="5000" NumberOfCells="4000">
<PointData Scalars="Reaction 0">
<DataArray type="Float32" Name="Reaction 0" format="ascii">
0.880078
0.880078
0.880078
0.880078
0.880078
0.880078
0.880078
0.880078
0.880078
0.880078
0.880078
0.880078
0.880078
0.880078
0.880078
0.880078
0.880078
0.880078
0.880078
0.880078
0.880078
0.880078
0.880078
0.880078
0.880078
0.880078
0.880079
0.880079
0.880079
0.880079
0.880079
0.880079
0.880079
0.880079
0.880079
0.880079
0.880079
0.880079
0.880079
0.880079
0.880079
0.880079
0.880079
0.880079
0.880079
0.880079
0.880079
0.880079
0.880079
0.880079
0.880079
0.880079
0.880079
0.88008
0.88008
0.88008
0.88008
0.88008
0.88008
0.88008
0.88008
0.88008
0.88008
0.88008
0.88008
0.88008
0.88008
0.88008
0.88008
0.88008
0.88008
0.880081
0.880081
0.880081
0.880081
0.880081
0.880081
0.880081
0.880081
0.880081
0.880081
0.880081
0.880081
0.880081
0.880081
0.880081
0.880082
0.880082
0.880082
0.880082
0.880082
0.880082
0.880082
0.880082
0.880082
0.880082
0.880082
0.880083
0.880083
0.880083
0.880083
0.880083
0.880083
0.880083
0.880083
0.880083
0.880083
0.880083
0.880084
0.880084
0.880084
0.880084
0.880084
0.880084
0.880084
0.880084
0.880084
0.880085
0.880085
0.880085
0.880085
0.880085
0.880085
0.880085
0.880085
0.880085
0.880085
0.880086
0.880086
0.880086
0.880086
0.880086
0.880086
0.880086
0.880087
0.880087
0.880087
0.880087
0.880087
0.880087
0.880087
0.880087
0.880087
0.880088
0.880088
0.880088
0.880088
0.880088
0.880088
0.880088
0.880088
0.880089
0.880089
0.880089
0.880089
0.880089
0.880089
0.88009
0.88009
0.88009
0.88009
0.88009
0.88009
0.88009
0.880091
0.880091
0.880091
0.880091
0.880091
0.880091
0.880091
0.880092
0.880092
0.880092
0.880092
0.880092
0.880092
0.880093
0.880093
0.880093
0.880093
0.880093
0.880093
0.880094
0.880094
0.880094
0.880094
0.880094
0.880094
0.880095
0.880095
0.880095
0.880095
0.880095
0.880096
0.880096
0.880096
0.880096
0.880096
0.880096
0.880096
0.880097
0.880097
0.880097
0.880097
0.880097
0.880098
0.880098
0.880098
0.880098
0.880098
0.880099
0.880099
0.880099
0.880099
0.880099
0.8801
0.8801
0.8801
0.8801
0.8801
0.880101
0.880101
0.880101
0.880101
0.880101
0.880102
0.880102
0.880102
0.880102
0.880102
0.880103
0.880103
0.880103
0.880103
0.880103
0.880104
0.880104
0.880104
0.880104
0.880104
0.880105
0.880105
0.880105
0.880106
0.880106
0.880106
0.880106
0.880106
0.880107
0.880107
0.880107
0.880107
0.880108
0.880108
0.880108
0.880108
0.880108
0.880109
0.880109
0.880109
0.880109
0.88011
0.88011
0.88011
0.88011
0.880111
0.880111
0.880111
0.880111
0.880111
0.880112
0.880112
0.880112
0.880113
0.880113
0.880113
0.880113
0.880114
0.880114
0.880114
0.880114
0.880115
0.880115
0.880115
0.880115
0.880116
0.880116
0.880116
0.880117
0.880117
0.880117
0.880117
0.880118
0.880118
0.880118
0.880118
0.880119
0.880119
0.880119
0.880119
0.88012
0.88012
0.88012
0.880121
0.880121
0.880121
0.880121
0.880122
0.880122
0.880122
0.880122
0.880123
0.880123
0.880124
0.880124
0.880124
0.880124
0.880125
0.880125
0.880125
0.880125
0.880126
0.880126
0.880126
0.880126
0.880127
0.880127
0.880128
0.880128
0.880128
0.880128
0.880129
0.880129
0.880129
0.880129
0.88013
0.88013
0.880131
0.880131
0.880131
0.880131
0.880132
0.880132
0.880133
0.880133
0.880133
0.880133
0.880134
0.880134
0.880134
0.880135
0.880135
0.880135
0.880136
0.880136
0.880136
0.880137
0.880137
0.880137
0.880137
0.880138
0.880138
0.880139
0.880139
0.880139
0.880139
0.88014
0.88014
0.880141
0.880141
0.880141
0.880142
0.880142
0.880142
0.880142
0.880143
0.880143
0.880144
0.880144
0.880144
0.880145
0.880145
0.880145
0.880146
0.880146
0.880146
0.880147
0.880147
0.880148
0.880148
0.880148
0.880149
0.880149
0.880149
0.880149
0.88015
0.88015
0.880151
0.880151
0.880151
0.880152
0.880152
0.880153
0.880153
0.880153
0.880154
0.880154
0.880154
0.880155
0.880155
0.880155
0.880156
0.880156
0.880157
0.880157
0.880157
0.880158
0.880158
0.880159
0.880159
0.880159
0.88016
0.88016
0.880161
0.880161
0.880161
0.880162
0.880162
0.880163
0.880163
0.880163
0.880164
0.880164
0.880165
0.880165
0.880165
0.880166
0.880166
0.880167
0.880167
0.880167
0.880168
0.880168
0.880169
0.880169
0.880169
0.88017
0.88017
0.880171
0.880171
0.880171
0.880172
0.880172
0.880173
0.880173
0.880173
0.880174
0.880174
0.880175
0.880175
0.880175
0.880176
0.880176
0.880177
0.880177
0.880177
0.880178
0.880178
0.880179
0.880179
0.880179
0.88018
0.88018
0.880181
0.880181
0.880182
0.880182
0.880183
0.880183
0.880183
0.880184
0.880184
0.880185
0.880185
0.880185
0.880186
0.880186
0.880187
0.880188
0.880188
0.880188
0.880189
0.880189
0.88019
0.88019
0.88019
0.880191
0.880192
0.880192
0.880192
0.880193
0.880193
0.880194
0.880194
0.880194
0.880195
0.880196
0.880196
0.880197
0.880197
0.880197
0.880198
0.880199
0.880199
0.880199
0.8802
0.8802
0.880201
0.880201
0.880201
0.880202
0.880203
0.880203
0.880204
0.880204
0.880204
0.880205
0.880206
0.880206
0.880206
0.880207
0.880207
0.880208
0.880209
0.880209
0.880209
0.88021
0.880211
0.880211
0.880211
0.880212
0.880212
0.880213
0.880214
0.880214
0.880214
0.880215
0.880216
0.880216
0.880216
0.880217
0.880217
0.880218
0.880219
0.880219
0.880219
0.88022
0.880221
0.880221
0.880221
0.880222
0.880222
0.880223
0.880224
0.880224
0.880224
0.880225
0.880226
0.880226
0.880226
0.880227
0.880228
0.880228
0.880229
0.880229
0.88023
0.88023
0.880231
0.880232
0.880232
0.880232
0.880233
0.880234
0.880234
0.880234
0.880235
0.880236
0.880236
0.880237
0.880237
0.880238
0.880238
0.880239
0.88024
0.88024
0.88024
0.880241
0.880242
0.880242
0.880242
0.880243
0.880244
0.880244
0.880245
0.880245
0.880246
0.880246
0.880247
0.880248
0.880248
0.880248
0.880249
0.88025
0.880251
0.880251
0.880251
0.880252
0.880253
0.880253
0.880253
0.880254
0.880255
0.880255
0.880256
0.880256
0.880257
0.880258
0.880258
0.880259
0.880259
0.88026
0.88026
0.880261
0.880262
0.880262
0.880263
0.880263
0.880264
0.880265
0.880265
0.880266
0.880266
0.880267
0.880268
0.880268
0.880268
0.880269
0.88027
0.880271
0.880271
0.880271
0.880272
0.880273
0.880274
0.880274
0.880274
0.880275
0.880276
0.880277
0.880277
0.880277
0.880278
0.880279
0.88028
0.88028
0.88028
0.880281
0.880282
0.880283
0.880283
0.880283
0.880284
0.880285
0.880286
0.880286
0.880286
0.880287
0.880288
0.880289
0.880289
0.88029
0.88029
0.880291
0.880292
0.880292
0.880293
0.880293
0.880294
0.880295
0.880295
0.880296
0.880297
0.880297
0.880298
0.880298
0.880299
0.8803
0.880301
0.880301
0.880301
0.880302
0.880303
0.880304
0.880305
0.880305
0.880305
0.880306
0.880307
0.880308
0.880308
0.880309
0.880309
0.88031
0.880311
0.880311
0.880312
0.880313
0.880313
0.880314
0.880314
0.880315
0.880316
0.880317
0.880318
0.880318
0.880318
0.880319
0.88032
0.880321
0.880321
0.880322
0.880322
0.880323
0.880324
0.880324
0.880325
0.880326
0.880327
0.880327
0.880327
0.880328
0.880329
0.88033
0.880331
0.880331
0.880332
0.880333
0.880333
0.880334
0.880334
0.880335
0.880336
0.880337
0.880338
0.880338
0.880339
0.880339
0.88034
0.880341
0.880341
0.880342
0.880343
0.880344
0.880345
0.880345
0.880345
0.880346
0.880347
0.880348
0.880348
0.880349
0.88035
0.880351
0.880352
0.880352
0.880352
0.880353
0.880354
0.880355
0.880355
0.880356
0.880357
0.880358
0.880359
0.880359
0.88036
0.88036
0.880361
0.880362
0.880362
0.880363
0.880364
0.880365
0.880366
0.880366
0.880367
0.880368
0.880369
0.880369
0.880369
0.88037
0.880371
0.880372
0.880373
0.880373
0.880374
0.880375
0.880376
0.880377
0.880377
0.880378
0.880379
0.880379
0.88038
0.88038
0.880381
0.880382
0.880383
0.880384
0.880384
0.880385
0.880386
0.880387
0.880388
0.880388
0.880389
0.88039
0.880391
0.880392
0.880392
0.880393
0.880393
0.880394
0.880395
0.880395
0.880396
0.880397
0.880398
0.880399
0.880399
0.8804
0.880401
0.880402
0.880403
0.880403
0.880404
0.880405
0.880406
0.880407
0.880407
0.880408
0.880409
0.88041
0.880411
0.880411
0.880412
0.880413
0.880414
0.880415
0.880415
0.880416
0.880417
0.880418
0.880419
0.880419
0.880419
0.88042
0.880421
0.880422
0.880422
0.880423
0.880424
0.880425
0.880426
0.880426
0.880427
0.880428
0.880429
0.88043
0.88043
0.880431
0.880432
0.880433
0.880434
0.880434
0.880435
0.880436
0.880437
0.880438
0.880438
0.880439
0.88044
0.880441
0.880442
0.880442
0.880443
0.880444
0.880446
0.880447
0.880447
0.880448
0.880449
0.88045
0.880451
0.880451
0.880452
0.880453
0.880454
0.880455
0.880455
0.880456
0.880457
0.880458
0.880459
0.880459
0.88046
0.880461
0.880462
0.880463
0.880463
0.880464
0.880465
0.880466
0.880467
0.880467
0.880468
0.880469
0.88047
0.880471
0.880471
0.880472
0.880474
0.880475
0.880476
0.880476
0.880477
0.880478
0.880479
0.88048
0.88048
0.880481
0.880482
0.880483
0.880484
0.880484
0.880485
0.880486
0.880487
0.880488
0.880488
0.88049
0.880491
0.880492
0.880493
0.880493
0.880494
0.880495
0.880496
0.880497
0.880497
0.880498
0.880499
0.8805
0.880501
0.880501
0.880503
0.880504
0.880505
0.880506
0.880506
0.880507
0.880508
0.880509
0.88051
0.88051
0.880511
0.880512
0.880514
0.880515
0.880515
0.880516
0.880517
0.880518
0.880519
0.880519
0.88052
0.880521
0.880522
0.880524
0.880524
0.880525
0.880526
0.880527
0.880528
0.880528
0.880529
0.88053
0.880531
0.880533
0.880533
0.880534
0.880535
0.880536
0.880537
0.880537
0.880538
0.880539
0.880541
0.880542
0.880542
0.880543
0.880544
0.880545
0.880546
0.880546
0.880547
0.880549
0.88055
0.880551
0.880551
0.880552
0.880553
0.880554
0.880556
0.880556
0.880557
0.880558
0.880559
0.88056
0.88056
0.880561
0.880563
0.880564
0.880565
0.880565
0.880566
0.880567
0.880568
0.88057
0.88057
0.880571
0.880572
0.880573
0.880574
0.880574
0.880575
0.880577
0.880578
0.880579
0.880579
0.88058
0.880581
0.880583
0.880584
0.880584
0.880585
0.880586
0.880587
0.880589
0.880589
0.88059
0.880591
0.880592
0.880593
0.880593
0.880595
0.880596
0.880597
0.880598
0.880598
0.880599
0.880601
0.880602
0.880603
0.880603
0.880604
0.880605
0.880607
0.880608
0.880608
0.880609
0.88061
0.880612
0.880613
0.880613
0.880614
0.880615
0.880616
0.880618
0.880618
0.880619
0.88062
0.880621
0.880623
0.880623
0.880624
0.880625
0.880626
0.880627
0.880627
0.880629
0.88063
0.880631
0.880632
0.880632
0.880634
0.880635
0.880636
0.880637
0.880637
0.880639
0.88064
0.880641
0.880642
0.880642
0.880644
0.880645
0.880646
0.880647
0.880647
0.880649
0.88065
0.880651
0.880652
0.880652
0.880654
0.880655
0.880656
0.880657
0.880657
0.880659
0.88066
0.880661
0.880663
0.880663
0.880664
0.880665
0.880666
0.880668
0.880668
0.880669
0.88067
0.880672
0.880673
0.880673
0.880674
0.880676
0.880677
0.880678
0.880678
0.88068
0.880681
0.880682
0.880683
0.880683
0.880685
0.880686
0.880687
0.880689
0.880689
0.88069
0.880691
0.880693
0.880694
0.880694
0.880695
0.880697
0.880698
0.880699
0.880699
0.880701
0.880702
0.880703
0.880705
0.880705
0.880706
0.880707
0.880709
0.88071
0.88071
0.880711
0.880713
0.880714
0.880715
0.880715
0.880717
0.880718
0.880719
0.880721
0.880721
0.880722
0.880723
0.880725
0.880726
0.880726
0.880727
0.880729
0.88073
0.880731
0.880731
0.880733
0.880734
0.880735
0.880737
0.880737
0.880738
0.88074
0.880741
0.880742
0.880742
0.880744
0.880745
0.880746
0.880748
0.880748
0.880749
0.88075
0.880752
0.880753
0.880753
0.880755
0.880756
0.880757
0.880759
0.880759
0.88076
0.880761
0.880763
0.880764
0.880764
0.880766
0.880767
0.880768
0.88077
0.88077
0.880771
0.880773
0.880774
0.880775
0.880775
0.880777
0.880778
0.88078
0.880781
0.880781
0.880782
0.880784
0.880785
0.880787
0.880787
0.880788
0.880789
0.880791
0.880792
0.880792
0.880794
0.880795
0.880796
0.880798
0.880798
0.880799
0.880801
0.880802
0.880804
0.880804
0.880805
0.880806
0.880808
0.880809
0.880809
0.880811
0.880812
0.880814
0.880815
0.880815
0.880816
0.880818
0.880819
0.880821
0.880821
0.880822
0.880824
0.880825
0.880826
0.880826
0.880828
0.880829
0.880831
0.880832
0.880832
0.880834
0.880835
0.880837
0.880838
0.880838
0.88084
0.880841
0.880842
0.880844
0.880844
0.880845
0.880847
0.880848
0.88085
0.88085
0.880851
0.880853
0.880854
0.880856
0.880856
0.880857
0.880859
0.88086
0.880862
0.880862
0.880863
0.880865
0.880866
0.880867
0.880867
0.880869
0.88087
0.880872
0.880873
0.880873
0.880875
0.880876
0.880878
0.880879
0.880879
0.880881
0.880882
0.880884
0.880885
0.880885
0.880887
0.880888
0.88089
0.880891
0.880891
0.880893
0.880894
0.880896
0.880897
0.880897
0.880899
0.8809
0.880902
0.880904
0.880904
0.880905
0.880907
0.880908
0.88091
0.88091
0.880911
0.880913
0.880914
0.880916
0.880916
0.880917
0.880919
0.88092
0.880922
0.880922
0.880923
0.880925
0.880926
0.880928
0.880928
0.880929
0.880931
0.880933
0.880934
0.880934
0.880936
0.880937
0.880939
0.88094
0.88094
0.880942
0.880943
0.880945
0.880947
0.880947
0.880948
0.88095
0.880951
0.880953
0.880953
0.880954
0.880956
0.880957
0.880959
0.880959
0.880961
0.880962
0.880964
0.880965
0.880965
0.880967
0.880968
0.88097
0.880972
0.880972
0.880973
0.880975
0.880976
0.880978
0.880978
0.880979
0.880981
0.880983
0.880984
0.880984
0.880986
0.880987
0.880989
0.880991
0.880991
0.880992
0.880994
0.880995
0.880997
0.880997
0.880999
0.881
0.881002
0.881003
0.881003
0.881005
0.881007
0.881008
0.88101
0.88101
0.881011
0.881013
0.881015
0.881016
0.881016
0.881018
0.88102
0.881021
0.881023
0.881023
0.881024
0.881026
0.881028
0.881029
0.881029
0.881031
0.881032
0.881034
0.881036
0.881036
0.881037
0.881039
0.881041
0.881042
0.881042
0.881044
0.881046
0.881047
0.881049
0.881049
0.88105
0.881052
0.881054
0.881055
0.881055
0.881057
0.881059
0.88106
0.881062
0.881062
0.881064
0.881065
0.881067
0.881069
0.881069
0.88107
0.881072
0.881074
0.881075
0.881075
0.881077
0.881079
0.88108
0.881082
0.881082
0.881084
0.881085
0.881087
0.881088
0.881088
0.88109
0.881092
0.881093
0.881095
0.881095
0.881097
0.881098
0.8811
0.881102
0.881102
0.881103
0.881105
0.881107
0.881108
0.881108
0.88111
0.881112
0.881113
0.881115
0.881115
0.881117
0.881119
0.88112
0.881122
0.881122
0.881124
0.881125
0.881127
0.881129
0.881129
0.88113
0.881132
0.881134
0.881136
0.881136
0.881137
0.881139
0.881141
0.881142
0.881142
0.881144
0.881146
0.881148
0.881149
0.881149
0.881151
0.881153
0.881155
0.881156
0.881156
0.881158
0.88116
0.881162
0.881163
0.881163
0.881165
0.881167
0.881169
0.88117
0.88117
0.881172
0.881174
0.881176
0.881177
0.881177
0.881179
0.881181
0.881183
0.881184
0.881184
0.881186
0.881188
0.88119
0.881191
0.881191
0.881193
0.881195
0.881197
0.881198
0.881198
0.8812
0.881202
0.881204
0.881206
0.881206
0.881207
0.881209
0.881211
0.881213
0.881213
0.881214
0.881216
0.881218
0.88122
0.88122
0.881222
0.881223
0.881225
0.881227
0.881227
0.881229
0.88123
0.881232
0.881234
0.881234
0.881236
0.881238
0.881239
0.881241
0.881241
0.881243
0.881245
0.881247
0.881248
0.881248
0.88125
0.881252
0.881254
0.881256
0.881256
0.881257
0.881259
0.881261
0.881263
0.881263
0.881265
0.881266
0.881268
0.88127
0.88127
0.881272
0.881274
0.881275
0.881277
0.881277
0.881279
0.881281
0.881283
0.881285
0.881285
0.881286
0.881288
0.88129
0.881292
0.881292
0.881294
0.881295
0.881297
0.881299
0.881299
0.881301
0.881303
0.881305
0.881306
0.881306
0.881308
0.88131
0.881312
0.881314
0.881314
0.881316
0.881318
0.881319
0.881321
0.881321
0.881323
0.881325
0.881327
0.881329
0.881329
0.881331
0.881332
0.881334
0.881336
0.881336
0.881338
0.88134
0.881342
0.881344
0.881344
0.881345
0.881347
0.881349
0.881351
0.881351
0.881353
0.881355
0.881357
0.881359
0.881359
0.88136
0.881362
0.881364
0.881366
0.881366
0.881368
0.88137
0.881372
0.881374
0.881374
0.881375
0.881377
0.881379
0.881381
0.881381
0.881383
0.881385
0.881387
0.881389
0.881389
0.881391
0.881393
0.881394
0.881396
0.881396
0.881398
0.8814
0.881402
0.881404
0.881404
0.881406
0.881408
0.88141
0.881412
0.881412
0.881414
0.881415
0.881417
0.881419
0.881419
0.881421
0.881423
0.881425
0.881427
0.881427
0.881429
0.881431
0.881433
0.881435
0.881435
0.881437
0.881439
0.88144
0.881442
0.881442
0.881444
0.881446
0.881448
0.88145
0.88145
0.881452
0.881454
0.881456
0.881458
0.881458
0.88146
0.881462
0.881464
0.881466
0.881466
0.881468
0.88147
0.881472
0.881474
0.881474
0.881476
0.881477
0.881479
0.881481
0.881481
0.881483
0.881485
0.881487
0.881489
0.881489
0.881491
0.881493
0.881495
0.881497
0.881497
0.881499
0.881501
0.881503
0.881505
0.881505
0.881507
0.881509
0.881511
0.881513
0.881513
0.881515
0.881517
0.881519
0.881521
0.881521
0.881523
0.881525
0.881527
0.881529
0.881529
0.881531
0.881533
0.881535
0.881537
0.881537
0.881539
0.881541
0.881543
0.881545
0.881545
0.881547
0.881549
0.881551
0.881553
0.881553
0.881555
0.881557
0.881559
0.881561
0.881561
0.881563
0.881565
0.881567
0.881569
0.881569
0.881571
0.881573
0.881575
0.881577
0.881577
0.881579
0.881581
0.881583
0.881585
0.881585
0.881587
0.881589
0.881591
0.881593
0.881593
0.881595
0.881597
0.881599
0.881601
0.881601
0.881603
0.881605
0.881607
0.881609
0.881609
0.881611
0.881613
0.881615
0.881617
0.881617
0.881619
0.881622
0.881624
0.881626
0.881626
0.881628
0.88163
0.881632
0.881634
0.881634
0.881636
0.881638
0.88164
0.881642
0.881642
0.881644
0.881646
0.881649
0.881651
0.881651
0.881653
0.881655
0.881657
0.881659
0.881659
0.881661
0.881663
0.881665
0.881667
0.881667
0.881669
0.881672
0.881674
0.881676
0.881676
0.881678
0.88168
0.881682
0.881684
0.881684
0.881686
0.881688
0.88169
0.881693
0.881693
0.881695
0.881697
0.881699
0.881701
0.881701
0.881703
0.881705
0.881707
0.881709
0.881709
0.881711
0.881714
0.881716
0.881718
0.881718
0.88172
0.881722
0.881724
0.881726
0.881726
0.881728
0.881731
0.881733
0.881735
0.881735
0.881737
0.881739
0.881741
0.881743
0.881743
0.881745
0.881748
0.88175
0.881752
0.881752
0.881754
0.881756
0.881758
0.88176
0.88176
0.881762
0.881765
0.881767
0.881769
0.881769
0.881771
0.881773
0.881775
0.881777
0.881777
0.88178
0.881782
0.881784
0.881786
0.881786
0.881788
0.88179
0.881793
0.881795
0.881795
0.881797
0.881799
0.881801
0.881803
0.881803
0.881806
0.881808
0.88181
0.881812
0.881812
0.881814
0.881816
0.881819
0.881821
0.881821
0.881823
0.881825
0.881827
0.881829
0.881829
0.881832
0.881834
0.881836
0.881838
0.881838
0.88184
0.881843
0.881845
0.881847
0.881847
0.881849
0.881851
0.881854
0.881856
0.881856
0.881858
0.88186
0.881862
0.881865
0.881865
0.881867
0.881869
0.881871
0.881873
0.881873
0.881876
0.881878
0.88188
0.881882
0.881882
0.881884
0.881887
0.881889
0.881891
0.881891
0.881893
0.881895
0.881898
0.8819
0.8819
0.881902
0.881904
0.881907
0.881909
0.881909
0.881911
0.881913
0.881915
0.881918
0.881918
0.88192
0.881922
0.881924
0.881927
0.881927
0.881929
0.881931
0.881933
0.881936
0.881936
0.881938
0.88194
0.881942
0.881945
0.881945
0.881947
0.881949
0.881951
0.881954
0.881954
0.881956
0.881958
0.88196
0.881963
0.881963
0.881965
0.881967
0.881969
0.881972
0.881972
0.881974
0.881976
0.881978
0.881981
0.881981
0.881983
0.881985
0.881988
0.88199
0.88199
0.881992
0.881994
0.881997
0.881999
0.881999
0.882001
0.882003
0.882006
0.882008
0.882008
0.88201
0.882012
0.882015
0.882017
0.882017
0.882019
0.882022
0.882024
0.882026
0.882026
0.882028
0.882031
0.882033
0.882035
0.882035
0.882037
0.88204
0.882042
0.882044
0.882044
0.882047
0.882049
0.882051
0.882053
0.882053
0.882056
0.882058
0.88206
0.882063
0.882063
0.882065
0.882067
0.882069
0.882072
0.882072
0.882074
0.882076
0.882079
0.882081
0.882081
0.882083
0.882086
0.882088
0.882091
0.882091
0.882093
0.882095
0.882098
0.8821
0.8821
0.882102
0.882105
0.882107
0.882109
0.882109
0.882112
0.882114
0.882116
0.882119
0.882119
0.882121
0.882124
0.882126
0.882128
0.882128
0.882131
0.882133
0.882135
0.882138
0.882138
0.88214
0.882143
0.882145
0.882147
0.882147
0.88215
0.882152
0.882154
0.882157
0.882157
0.882159
0.882161
0.882164
0.882166
0.882166
0.882169
0.882171
0.882173
0.882176
0.882176
0.882178
0.88218
0.882183
0.882185
0.882185
0.882188
0.88219
0.882192
0.882195
0.882195
0.882197
0.8822
0.882202
0.882204
0.882204
0.882207
0.882209
0.882212
0.882214
0.882214
0.882216
0.882219
0.882221
0.882224
0.882224
0.882226
0.882228
0.882231
0.882233
0.882233
0.882236
0.882238
0.88224
0.882243
0.882243
0.882245
0.882248
0.88225
0.882252
0.882252
0.882255
0.882257
0.88226
0.882262
0.882262
0.882265
0.882267
0.882269
0.882272
0.882272
0.882274
0.882277
0.882279
0.882281
0.882281
0.882284
0.882286
0.882289
0.882291
0.882291
0.882294
0.882296
0.882299
0.882301
0.882301
0.882303
0.882306
0.882308
0.882311
0.882311
0.882313
0.882316
0.882318
0.882321
0.882321
0.882323
0.882325
0.882328
0.88233
0.88233
0.882333
0.882335
0.882338
0.88234
0.88234
0.882343
0.882345
0.882348
0.88235
0.88235
0.882352
0.882355
0.882357
0.88236
0.88236
0.882362
0.882365
0.882367
0.88237
0.88237
0.882372
0.882375
0.882377
0.88238
0.88238
0.882382
0.882385
0.882387
0.88239
0.88239
0.882392
0.882395
0.882397
0.8824
0.8824
0.882402
0.882405
0.882407
0.88241
0.88241
0.882412
0.882415
0.882417
0.88242
0.88242
0.882422
0.882425
0.882427
0.88243
0.88243
0.882432
0.882435
0.882437
0.88244
0.88244
0.882442
0.882445
0.882447
0.88245
0.88245
0.882452
0.882455
0.882457
0.88246
0.88246
0.882462
0.882465
0.882467
0.88247
0.88247
0.882472
0.882475
0.882477
0.88248
0.88248
0.882482
0.882485
0.882487
0.88249
0.88249
0.882492
0.882495
0.882497
0.8825
0.8825
0.882502
0.882505
0.882507
0.88251
0.88251
0.882512
0.882515
0.882517
0.88252
0.88252
0.882522
0.882525
0.882528
0.88253
0.88253
0.882533
0.882535
0.882538
0.88254
0.88254
0.882543
0.882545
0.882548
0.882551
0.882551
0.882553
0.882556
0.882558
0.882561
0.882561
0.882563
0.882566
0.882569
0.882571
0.882571
0.882574
0.882576
0.882579
0.882582
0.882582
0.882584
0.882587
0.88259
0.882592
0.882592
0.882595
0.882597
0.8826
0.882603
0.882603
0.882605
0.882608
0.88261
0.882613
0.882613
0.882616
0.882618
0.882621
0.882623
0.882623
0.882626
0.882629
0.882631
0.882634
0.882634
0.882636
0.882639
0.882642
0.882644
0.882644
0.882647
0.88265
0.882652
0.882655
0.882655
0.882657
0.88266
0.882663
0.882665
0.882665
0.882668
0.882671
0.882673
0.882676
0.882676
0.882678
0.882681
0.882684
0.882686
0.882686
0.882689
0.882692
0.882694
0.882697
0.882697
0.882699
0.882702
0.882705
0.882707
0.882707
0.88271
0.882713
0.882715
0.882718
0.882718
0.882721
0.882723
0.882726
0.882729
0.882729
0.882731
0.882734
0.882736
0.882739
0.882739
0.882742
0.882744
0.882747
0.88275
0.88275
0.882752
0.882755
0.882758
0.88276
0.88276
0.882763
0.882766
0.882768
0.882771
0.882771
0.882774
0.882776
0.882779
0.882782
0.882782
0.882784
0.882787
0.88279
0.882792
0.882792
0.882795
0.882798
0.8828
0.882803
0.882803
0.882806
0.882809
0.882811
0.882814
0.882814
0.882817
0.882819
0.882822
0.882825
0.882825
0.882827
0.88283
0.882833
0.882835
0.882835
0.882838
0.882841
0.882844
0.882846
0.882846
0.882849
0.882852
0.882854
0.882857
0.882857
0.88286
0.882862
0.882865
0.882868
0.882868
0.882871
0.882873
0.882876
0.882879
0.882879
0.882881
0.882884
0.882887
0.88289
0.88289
0.882892
0.882895
0.882898
0.8829
0.8829
0.882903
0.882906
0.882909
0.882911
0.882911
0.882914
0.882917
0.882919
0.882922
0.882922
0.882925
0.882928
0.88293
0.882933
0.882933
0.882936
0.882939
0.882941
0.882944
0.882944
0.882947
0.882949
0.882952
0.882955
0.882955
0.882958
0.88296
0.882963
0.882966
0.882966
0.882969
0.882971
0.882974
0.882977
0.882977
0.882979
0.882982
0.882985
0.882988
0.882988
0.88299
0.882993
0.882996
0.882999
0.882999
0.883001
0.883004
0.883007
0.88301
0.88301
0.883012
0.883015
0.883018
0.883021
0.883021
0.883024
0.883026
0.883029
0.883032
0.883032
0.883035
0.883038
0.883041
0.883043
0.883043
0.883046
0.883049
0.883052
0.883055
0.883055
0.883057
0.88306
0.883063
0.883066
0.883066
0.883069
0.883072
0.883074
0.883077
0.883077
0.88308
0.883083
0.883086
0.883088
0.883088
0.883091
0.883094
0.883097
0.8831
0.8831
0.883103
0.883105
0.883108
0.883111
0.883111
0.883114
0.883117
0.88312
0.883122
0.883122
0.883125
0.883128
0.883131
0.883134
0.883134
0.883136
0.883139
0.883142
0.883145
0.883145
0.883148
0.883151
0.883153
0.883156
0.883156
0.883159
0.883162
0.883165
0.883168
0.883168
0.883171
0.883173
0.883176
0.883179
0.883179
0.883182
0.883185
0.883188
0.88319
0.88319
0.883193
0.883196
0.883199
0.883202
0.883202
0.883205
0.883208
0.88321
0.883213
0.883213
0.883216
0.883219
0.883222
0.883225
0.883225
0.883228
0.88323
0.883233
0.883236
0.883236
0.883239
0.883242
0.883245
0.883248
0.883248
0.883251
0.883253
0.883256
0.883259
0.883259
0.883262
0.883265
0.883268
0.883271
0.883271
0.883274
0.883277
0.883279
0.883282
0.883282
0.883285
0.883288
0.883291
0.883294
0.883294
0.883297
0.8833
0.883303
0.883305
0.883305
0.883308
0.883311
0.883314
0.883317
0.883317
0.88332
0.883323
0.883326
0.883329
0.883329
0.883332
0.883334
0.883337
0.88334
0.88334
0.883343
0.883346
0.883349
0.883352
0.883352
0.883355
0.883358
0.883361
0.883364
0.883364
0.883366
0.883369
0.883372
0.883375
0.883375
0.883378
0.883381
0.883384
0.883387
0.883387
0.88339
0.883393
0.883396
0.883398
0.883398
0.883401
0.883404
0.883407
0.88341
0.88341
0.883413
0.883416
0.883419
0.883422
0.883422
0.883425
0.883428
0.88343
0.883433
0.883433
0.883436
0.883439
0.883442
0.883445
0.883445
0.883448
0.883451
0.883454
0.883457
0.883457
0.88346
0.883463
0.883466
0.883469
0.883469
0.883472
0.883475
0.883478
0.883481
0.883481
0.883484
0.883487
0.88349
0.883493
0.883493
0.883496
0.883499
0.883502
0.883505
0.883505
0.883508
0.883511
0.883514
0.883517
0.883517
0.88352
0.883523
0.883526
0.883529
0.883529
0.883532
0.883535
0.883538
0.883541
0.883541
0.883544
0.883547
0.88355
0.883553
0.883553
0.883556
0.883559
0.883562
0.883565
0.883565
0.883568
0.883571
0.883574
0.883577
0.883577
0.88358
0.883583
0.883586
0.883589
0.883589
0.883592
0.883595
0.883598
0.883601
0.883601
0.883604
0.883607
0.88361
0.883613
0.883613
0.883616
0.883619
0.883622
0.883625
0.883625
0.883628
0.883631
0.883634
0.883637
0.883637
0.88364
0.883643
0.883646
0.883649
0.883649
0.883652
0.883655
0.883658
0.883661
0.883661
0.883665
0.883668
0.883671
0.883674
0.883674
0.883677
0.88368
0.883683
0.883686
0.883686
0.883689
0.883692
0.883695
0.883698
0.883698
0.883701
0.883704
0.883707
0.88371
0.88371
0.883713
0.883716
0.883719
0.883722
0.883722
0.883726
0.883729
0.883732
0.883735
0.883735
0.883738
0.883741
0.883744
0.883747
0.883747
0.88375
0.883753
0.883756
0.883759
0.883759
0.883762
0.883765
0.883768
0.883772
0.883772
0.883775
0.883778
0.883781
0.883784
0.883784
0.883787
0.88379
0.883793
0.883796
0.883796
0.883799
0.883802
0.883805
0.883808
0.883808
0.883812
0.883815
0.883818
0.883821
0.883821
0.883824
0.883827
0.88383
0.883833
0.883833
0.883836
0.883839
0.883842
0.883845
0.883845
0.883849
0.883852
0.883855
0.883858
0.883858
0.883861
0.883864
0.883867
0.88387
0.88387
0.883873
0.883876
0.883879
0.883882
0.883882
0.883886
0.883889
0.883892
0.883895
0.883895
0.883898
0.883901
0.883904
0.883907
0.883907
0.88391
0.883913
0.883917
0.88392
0.88392
0.883923
0.883926
0.883929
0.883932
0.883932
0.883935
0.883939
0.883942
0.883945
0.883945
0.883948
0.883951
0.883954
0.883958
0.883958
0.883961
0.883964
0.883967
0.88397
0.88397
0.883974
0.883977
0.88398
0.883983
0.883983
0.883986
0.883989
0.883993
0.883996
0.883996
0.883999
0.884002
0.884005
0.884009
0.884009
0.884012
0.884015
0.884018
0.884021
0.884021
0.884024
0.884028
0.884031
0.884034
0.884034
0.884037
0.88404
0.884044
0.884047
0.884047
0.88405
0.884053
0.884056
0.884059
0.884059
0.884063
0.884066
0.884069
0.884072
0.884072
0.884075
0.884079
0.884082
0.884085
0.884085
0.884088
0.884091
0.884095
0.884098
0.884098
0.884101
0.884104
0.884107
0.884111
0.884111
0.884114
0.884117
0.88412
0.884123
0.884123
0.884127
0.88413
0.884133
0.884136
0.884136
0.884139
0.884143
0.884146
0.884149
0.884149
0.884152
0.884155
0.884159
0.884162
0.884162
0.884165
0.884168
0.884172
0.884175
0.884175
0.884178
0.884181
0.884184
0.884188
0.884188
0.884191
0.884194
0.884197
0.884201
0.884201
0.884204
0.884207
0.88421
0.884213
0.884213
0.884217
0.88422
0.884223
0.884226
0.884226
0.88423
0.884233
0.884236
0.884239
0.884239
0.884243
0.884246
0.884249
0.884252
0.884252
0.884256
0.884259
0.884262
0.884265
0.884265
0.884268
0.884272
0.884275
0.884278
0.884278
0.884281
0.884285
0.884288
0.884291
0.884291
0.884294
0.884298
0.884301
0.884304
0.884304
0.884307
0.884311
0.884314
0.884317
0.884317
0.88432
0.884323
0.884327
0.88433
0.88433
0.884333
0.884336
0.88434
0.884343
0.884343
0.884346
0.884349
0.884353
0.884356
0.884356
0.884359
0.884362
0.884366
0.884369
0.884369
0.884372
0.884376
0.884379
0.884382
0.884382
0.884386
0.884389
0.884392
0.884396
0.884396
0.884399
0.884402
0.884406
0.884409
0.884409
0.884412
0.884416
0.884419
0.884422
0.884422
0.884426
0.884429
0.884432
0.884436
0.884436
0.884439
0.884442
0.884446
0.884449
0.884449
0.884452
0.884456
0.884459
0.884462
0.884462
0.884466
0.884469
0.884472
0.884476
0.884476
0.884479
0.884482
0.884486
0.884489
0.884489
0.884492
0.884496
0.884499
0.884502
0.884502
0.884506
0.884509
0.884512
0.884516
0.884516
0.884519
0.884522
0.884526
0.884529
0.884529
0.884532
0.884536
0.884539
0.884542
0.884542
0.884546
0.884549
0.884552
0.884556
0.884556
0.884559
0.884562
0.884566
0.884569
0.884569
0.884573
0.884576
0.884579
0.884583
0.884583
0.884586
0.884589
0.884593
0.884596
0.884596
0.884599
0.884603
0.884606
0.884609
0.884609
0.884613
0.884616
0.88462
0.884623
0.884623
0.884626
0.88463
0.884633
0.884636
0.884636
0.88464
0.884643
0.884647
0.88465
0.88465
0.884653
0.884657
0.88466
0.884663
0.884663
0.884667
0.88467
0.884674
0.884677
0.884677
0.88468
0.884684
0.884687
0.88469
0.88469
0.884694
0.884697
0.884701
0.884704
0.884704
0.884707
0.884711
0.884714
0.884717
0.884717
0.884721
0.884724
0.884728
0.884731
0.884731
0.884734
0.884738
0.884741
0.884744
0.884744
0.884748
0.884751
0.884755
0.884758
0.884758
0.884761
0.884765
0.884768
0.884771
0.884771
0.884775
0.884778
0.884782
0.884785
0.884785
0.884788
0.884792
0.884795
0.884799
0.884799
0.884802
0.884805
0.884809
0.884812
0.884812
0.884816
0.884819
0.884823
0.884826
0.884826
0.88483
0.884833
0.884836
0.88484
0.88484
0.884843
0.884847
0.88485
0.884854
0.884854
0.884857
0.884861
0.884864
0.884868
0.884868
0.884871
0.884875
0.884878
0.884882
0.884882
0.884885
0.884889
0.884892
0.884896
0.884896
0.884899
0.884903
0.884906
0.884909
0.884909
0.884913
0.884916
0.88492
0.884923
0.884923
0.884927
0.88493
0.884934
0.884937
0.884937
0.884941
0.884944
0.884948
0.884951