<?xml version="1.0"?>
<VTKFile type="UnstructuredGrid" version="0.1" byte_order="LittleEndian">
<UnstructuredGrid>
<Piece NumberOfPoints="5000" NumberOfCells="4000">
<PointData Scalars="Reaction 0">
<DataArray type="Float32" Name="Reaction 0" format="ascii">
0.653243
0.653243
0.653243
0.653243
0.653243
0.653243
0.653243
0.653243
0.653243
0.653244
0.653244
0.653244
0.653244
0.653244
0.653244
0.653244
0.653244
0.653244
0.653244
0.653244
0.653244
0.653244
0.653244
0.653244
0.653245
0.653245
0.653245
0.653245
0.653245
0.653245
0.653245
0.653245
0.653245
0.653246
0.653246
0.653246
0.653246
0.653246
0.653246
0.653246
0.653246
0.653247
0.653247
0.653247
0.653247
0.653247
0.653247
0.653248
0.653248
0.653248
0.653248
0.653248
0.653249
0.653249
0.653249
0.653249
0.653249
0.65325
0.65325
0.65325
0.65325
0.65325
0.653251
0.653251
0.653251
0.653251
0.653252
0.653252
0.653252
0.653253
0.653253
0.653253
0.653253
0.653254
0.653254
0.653254
0.653254
0.653255
0.653255
0.653255
0.653255
0.653256
0.653256
0.653257
0.653257
0.653257
0.653257
0.653258
0.653258
0.653259
0.653259
0.653259
0.65326
0.65326
0.65326
0.65326
0.653261
0.653261
0.653262
0.653262
0.653262
0.653263
0.653263
0.653264
0.653264
0.653264
0.653265
0.653265
0.653266
0.653266
0.653266
0.653267
0.653267
0.653268
0.653268
0.653268
0.653269
0.65327
0.65327
0.653271
0.653271
0.653271
0.653272
0.653272
0.653273
0.653273
0.653274
0.653274
0.653275
0.653275
0.653275
0.653276
0.653277
0.653277
0.653278
0.653278
0.653279
0.653279
0.65328
0.653281
0.653281
0.653281
0.653282
0.653283
0.653283
0.653283
0.653284
0.653285
0.653285
0.653286
0.653286
0.653287
0.653287
0.653288
0.653289
0.653289
0.65329
0.65329
0.653291
0.653292
0.653292
0.653293
0.653293
0.653294
0.653295
0.653295
0.653296
0.653297
0.653297
0.653298
0.653298
0.653299
0.6533
0.653301
0.653301
0.653301
0.653302
0.653303
0.653304
0.653305
0.653305
0.653306
0.653307
0.653307
0.653308
0.653308
0.653309
0.65331
0.653311
0.653312
0.653312
0.653313
0.653314
0.653315
0.653316
0.653316
0.653316
0.653317
0.653318
0.653319
0.653319
0.65332
0.653321
0.653322
0.653323
0.653323
0.653324
0.653325
0.653326
0.653327
0.653327
0.653328
0.653329
0.65333
0.653331
0.653331
0.653332
0.653333
0.653334
0.653335
0.653335
0.653336
0.653337
0.653338
0.653339
0.653339
0.653341
0.653342
0.653343
0.653344
0.653344
0.653345
0.653346
0.653347
0.653348
0.653348
0.653349
0.65335
0.653352
0.653353
0.653353
0.653354
0.653355
0.653356
0.653357
0.653357
0.653358
0.65336
0.653361
0.653362
0.653362
0.653363
0.653364
0.653366
0.653367
0.653367
0.653368
0.653369
0.65337
0.653372
0.653372
0.653373
0.653374
0.653375
0.653377
0.653377
0.653378
0.653379
0.65338
0.653382
0.653382
0.653383
0.653384
0.653386
0.653387
0.653387
0.653388
0.65339
0.653391
0.653392
0.653392
0.653394
0.653395
0.653396
0.653398
0.653398
0.653399
0.6534
0.653402
0.653403
0.653403
0.653404
0.653406
0.653407
0.653409
0.653409
0.65341
0.653411
0.653413
0.653414
0.653414
0.653416
0.653417
0.653419
0.65342
0.65342
0.653421
0.653423
0.653424
0.653426
0.653426
0.653427
0.653429
0.65343
0.653432
0.653432
0.653433
0.653435
0.653436
0.653438
0.653438
0.653439
0.653441
0.653442
0.653444
0.653444
0.653446
0.653447
0.653449
0.65345
0.65345
0.653452
0.653453
0.653455
0.653457
0.653457
0.653458
0.65346
0.653461
0.653463
0.653463
0.653465
0.653466
0.653468
0.653469
0.653469
0.653471
0.653473
0.653474
0.653476
0.653476
0.653478
0.653479
0.653481
0.653483
0.653483
0.653485
0.653486
0.653488
0.65349
0.65349
0.653491
0.653493
0.653495
0.653497
0.653497
0.653498
0.6535
0.653502
0.653504
0.653504
0.653505
0.653507
0.653509
0.653511
0.653511
0.653512
0.653514
0.653516
0.653518
0.653518
0.65352
0.653521
0.653523
0.653525
0.653525
0.653527
0.653529
0.653531
0.653532
0.653532
0.653534
0.653536
0.653538
0.65354
0.65354
0.653542
0.653544
0.653546
0.653548
0.653548
0.653549
0.653551
0.653553
0.653555
0.653555
0.653557
0.653559
0.653561
0.653563
0.653563
0.653565
0.653567
0.653569
0.653571
0.653571
0.653573
0.653575
0.653577
0.653579
0.653579
0.653581
0.653583
0.653585
0.653587
0.653587
0.653589
0.653591
0.653593
0.653595
0.653595
0.653597
0.653599
0.653601
0.653603
0.653603
0.653605
0.653607
0.653609
0.653612
0.653612
0.653614
0.653616
0.653618
0.65362
0.65362
0.653622
0.653624
0.653626
0.653629
0.653629
0.653631
0.653633
0.653635
0.653637
0.653637
0.653639
0.653642
0.653644
0.653646
0.653646
0.653648
0.65365
0.653652
0.653655
0.653655
0.653657
0.653659
0.653661
0.653663
0.653663
0.653666
0.653668
0.65367
0.653672
0.653672
0.653674
0.653676
0.653679
0.653681
0.653681
0.653683
0.653685
0.653687
0.653689
0.653689
0.653691
0.653693
0.653695
0.653697
0.653697
0.653699
0.653702
0.653704
0.653706
0.653706
0.653708
0.65371
0.653712
0.653714
0.653714
0.653716
0.653718
0.65372
0.653722
0.653722
0.653724
0.653725
0.653727
0.653729
0.653729
0.653731
0.653733
0.653735
0.653737
0.653737
0.653739
0.653741
0.653743
0.653745
0.653745
0.653747
0.653749
0.653751
0.653753
0.653753
0.653755
0.653757
0.653759
0.653761
0.653761
0.653763
0.653765
0.653767
0.653769
0.653769
0.653772
0.653774
0.653776
0.653778
0.653778
0.65378
0.653782
0.653784
0.653786
0.653786
0.653788
0.65379
0.653792
0.653794
0.653794
0.653796
0.653799
0.653801
0.653803
0.653803
0.653805
0.653807
0.653809
0.653811
0.653811
0.653814
0.653816
0.653818
0.65382
0.65382
0.653822
0.653824
0.653826
0.653829
0.653829
0.653831
0.653833
0.653835
0.653837
0.653837
0.65384
0.653842
0.653844
0.653846
0.653846
0.653849
0.653851
0.653853
0.653855
0.653855
0.653857
0.65386
0.653862
0.653864
0.653864
0.653866
0.653869
0.653871
0.653873
0.653873
0.653876
0.653878
0.65388
0.653882
0.653882
0.653885
0.653887
0.653889
0.653892
0.653892
0.653894
0.653896
0.653899
0.653901
0.653901
0.653903
0.653906
0.653908
0.65391
0.65391
0.653913
0.653915
0.653918
0.65392
0.65392
0.653922
0.653925
0.653927
0.653929
0.653929
0.653932
0.653934
0.653937
0.653939
0.653939
0.653942
0.653944
0.653946
0.653949
0.653949
0.653951
0.653954
0.653956
0.653959
0.653959
0.653961
0.653964
0.653966
0.653969
0.653969
0.653971
0.653973
0.653976
0.653978
0.653978
0.653981
0.653983
0.653986
0.653988
0.653988
0.653991
0.653994
0.653996
0.653999
0.653999
0.654001
0.654004
0.654006
0.654009
0.654009
0.654011
0.654014
0.654017
0.654019
0.654019
0.654022
0.654024
0.654027
0.654029
0.654029
0.654032
0.654035
0.654037
0.65404
0.65404
0.654042
0.654045
0.654048
0.65405
0.65405
0.654053
0.654056
0.654058
0.654061
0.654061
0.654064
0.654066
0.654069
0.654072
0.654072
0.654074
0.654077
0.65408
0.654082
0.654082
0.654085
0.654088
0.654091
0.654093
0.654093
0.654096
0.654099
0.654101
0.654104
0.654104
0.654107
0.65411
0.654112
0.654115
0.654115
0.654118
0.654121
0.654123
0.654126
0.654126
0.654129
0.654132
0.654135
0.654137
0.654137
0.65414
0.654143
0.654146
0.654149
0.654149
0.654151
0.654154
0.654157
0.65416
0.65416
0.654163
0.654166
0.654168
0.654171
0.654171
0.654174
0.654177
0.65418
0.654183
0.654183
0.654186
0.654189
0.654191
0.654194
0.654194
0.654197
0.6542
0.654203
0.654206
0.654206
0.654209
0.654212
0.654215
0.654218
0.654218
0.654221
0.654224
0.654227
0.654229
0.654229
0.654232
0.654235
0.654238
0.654241
0.654241
0.654244
0.654247
0.65425
0.654253
0.654253
0.654256
0.654259
0.654262
0.654265
0.654265
0.654268
0.654271
0.654274
0.654277
0.654277
0.654281
0.654284
0.654287
0.65429
0.65429
0.654293
0.654296
0.654299
0.654302
0.654302
0.654305
0.654308
0.654311
0.654314
0.654314
0.654317
0.654321
0.654324
0.654327
0.654327
0.65433
0.654333
0.654336
0.654339
0.654339
0.654342
0.654346
0.654349
0.654352
0.654352
0.654355
0.654358
0.654361
0.654365
0.654365
0.654368
0.654371
0.654374
0.654377
0.654377
0.654381
0.654384
0.654387
0.65439
0.65439
0.654393
0.654397
0.6544
0.654403
0.654403
0.654406
0.65441
0.654413
0.654416
0.654416
0.654419
0.654423
0.654426
0.654429
0.654429
0.654433
0.654436
0.654439
0.654442
0.654442
0.654446
0.654449
0.654452
0.654456
0.654456
0.654459
0.654462
0.654466
0.654469
0.654469
0.654472
0.654476
0.654479
0.654483
0.654483
0.654486
0.654489
0.654493
0.654496
0.654496
0.654499
0.654503
0.654506
0.65451
0.65451
0.654513
0.654516
0.65452
0.654523
0.654523
0.654527
0.65453
0.654534
0.654537
0.654537
0.654541
0.654544
0.654547
0.654551
0.654551
0.654554
0.654558
0.654561
0.654565
0.654565
0.654568
0.654572
0.654575
0.654579
0.654579
0.654582
0.654586
0.654589
0.654593
0.654593
0.654597
0.6546
0.654604
0.654607
0.654607
0.654611
0.654614
0.654618
0.654621
0.654621
0.654625
0.654629
0.654632
0.654636
0.654636
0.654639
0.654643
0.654647
0.65465
0.65465
0.654654
0.654657
0.654661
0.654665
0.654665
0.654668
0.654672
0.654676
0.654679
0.654679
0.654683
0.654687
0.65469
0.654694
0.654694
0.654698
0.654701
0.654705
0.654709
0.654709
0.654712
0.654716
0.65472
0.654724
0.654724
0.654727
0.654731
0.654735
0.654739
0.654739
0.654742
0.654746
0.65475
0.654754
0.654754
0.654757
0.654761
0.654765
0.654769
0.654769
0.654772
0.654776
0.65478
0.654784
0.654784
0.654788
0.654791
0.654795
0.654799
0.654799
0.654803
0.654807
0.654811
0.654814
0.654814
0.654818
0.654822
0.654826
0.65483
0.65483
0.654834
0.654838
0.654842
0.654845
0.654845
0.654849
0.654853
0.654857
0.654861
0.654861
0.654865
0.654869
0.654873
0.654877
0.654877
0.654881
0.654885
0.654889
0.654892
0.654892
0.654896
0.6549
0.654904
0.654908
0.654908
0.654912
0.654916
0.65492
0.654924
0.654924
0.654928
0.654932
0.654936
0.65494
0.65494
0.654944
0.654948
0.654952
0.654956
0.654956
0.65496
0.654965
0.654969
0.654973
0.654973
0.654977
0.654981
0.654985
0.654989
0.654989
0.654993
0.654997
0.655001
0.655005
0.655005
0.655009
0.655014
0.655018
0.655022
0.655022
0.655026
0.65503
0.655034
0.655038
0.655038
0.655042
0.655047
0.655051
0.655055
0.655055
0.655059
0.655063
0.655067
0.655072
0.655072
0.655076
0.65508
0.655084
0.655088
0.655088
0.655093
0.655097
0.655101
0.655105
0.655105
0.65511
0.655114
0.655118
0.655122
0.655122
0.655127
0.655131
0.655135
0.655139
0.655139
0.655144
0.655148
0.655152
0.655157
0.655157
0.655161
0.655165
0.655169
0.655174
0.655174
0.655178
0.655182
0.655187
0.655191
0.655191
0.655195
0.6552
0.655204
0.655208
0.655208
0.655213
0.655217
0.655221
0.655226
0.655226
0.65523
0.655234
0.655239
0.655243
0.655243
0.655247
0.655252
0.655256
0.65526
0.65526
0.655264
0.655269
0.655273
0.655277
0.655277
0.655281
0.655285
0.655289
0.655293
0.655293
0.655297
0.655302
0.655306
0.65531
0.65531
0.655314
0.655317
0.655321
0.655325
0.655325
0.655329
0.655333
0.655337
0.655341
0.655341
0.655344
0.655348
0.655352
0.655356
0.655356
0.65536
0.655363
0.655367
0.655371
0.655371
0.655374
0.655378
0.655382
0.655386
0.655386
0.655389
0.655393
0.655397
0.6554
0.6554
0.655404
0.655408
0.655411
0.655415
0.655415
0.655419
0.655423
0.655426
0.65543
0.65543
0.655434
0.655438
0.655441
0.655445
0.655445
0.655449
0.655453
0.655456
0.65546
0.65546
0.655464
0.655468
0.655471
0.655475
0.655475
0.655479
0.655483
0.655487
0.65549
0.65549
0.655494
0.655498
0.655502
0.655506
0.655506
0.655509
0.655513
0.655517
0.655521
0.655521
0.655525
0.655529
0.655532
0.655536
0.655536
0.65554
0.655544
0.655548
0.655552
0.655552
0.655556
0.655559
0.655563
0.655567
0.655567
0.655571
0.655575
0.655579
0.655583
0.655583
0.655587
0.655591
0.655595
0.655598
0.655598
0.655602
0.655606
0.65561
0.655614
0.655614
0.655618
0.655622
0.655626
0.65563
0.65563
0.655634
0.655638
0.655642
0.655646
0.655646
0.65565
0.655654
0.655658
0.655662
0.655662
0.655666
0.65567
0.655674
0.655678
0.655678
0.655682
0.655686
0.65569
0.655694
0.655694
0.655698
0.655702
0.655706
0.65571
0.65571
0.655714
0.655718
0.655722
0.655727
0.655727
0.655731
0.655735
0.655739
0.655743
0.655743
0.655747
0.655751
0.655755
0.655759
0.655759
0.655763
0.655768
0.655772
0.655776
0.655776
0.65578
0.655784
0.655788
0.655792
0.655792
0.655796
0.655801
0.655805
0.655809
0.655809
0.655813
0.655817
0.655822
0.655826
0.655826
0.65583
0.655834
0.655838
0.655842
0.655842
0.655847
0.655851
0.655855
0.655859
0.655859
0.655864
0.655868
0.655872
0.655876
0.655876
0.655881
0.655885
0.655889
0.655893
0.655893
0.655898
0.655902
0.655906
0.65591
0.65591
0.655915
0.655919
0.655923
0.655928
0.655928
0.655932
0.655936
0.655941
0.655945
0.655945
0.655949
0.655954
0.655958
0.655962
0.655962
0.655967
0.655971
0.655975
0.65598
0.65598
0.655984
0.655988
0.655993
0.655997
0.655997
0.656001
0.656006
0.65601
0.656015
0.656015
0.656019
0.656023
0.656028
0.656032
0.656032
0.656037
0.656041
0.656046
0.65605
0.65605
0.656054
0.656059
0.656063
0.656068
0.656068
0.656072
0.656077
0.656081
0.656086
0.656086
0.65609
0.656095
0.656099
0.656104
0.656104
0.656108
0.656113
0.656117
0.656122
0.656122
0.656126
0.656131
0.656135
0.65614
0.65614
0.656144
0.656149
0.656153
0.656158
0.656158
0.656162
0.656167
0.656172
0.656176
0.656176
0.656181
0.656185
0.65619
0.656194
0.656194
0.656199
0.656204
0.656208
0.656213
0.656213
0.656218
0.656222
0.656227
0.656231
0.656231
0.656236
0.656241
0.656245
0.65625
0.65625
0.656255
0.656259
0.656264
0.656269
0.656269
0.656273
0.656278
0.656283
0.656287
0.656287
0.656292
0.656297
0.656301
0.656306
0.656306
0.656311
0.656316
0.65632
0.656325
0.656325
0.65633
0.656335
0.656339
0.656344
0.656344
0.656349
0.656354
0.656358
0.656363
0.656363
0.656368
0.656373
0.656377
0.656382
0.656382
0.656387
0.656392
0.656397
0.656401
0.656401
0.656406
0.656411
0.656416
0.656421
0.656421
0.656426
0.65643
0.656435
0.65644
0.65644
0.656445
0.65645
0.656455
0.65646
0.65646
0.656464
0.656469
0.656474
0.656479
0.656479
0.656484
0.656489
0.656494
0.656499
0.656499
0.656504
0.656509
0.656513
0.656518
0.656518
0.656523
0.656528
0.656533
0.656538
0.656538
0.656543
0.656548
0.656553
0.656558
0.656558
0.656563
0.656568
0.656573
0.656578
0.656578
0.656583
0.656587
0.656592
0.656597
0.656597
0.656602
0.656607
0.656612
0.656617
0.656617
0.656622
0.656626
0.656631
0.656636
0.656636
0.656641
0.656645
0.65665
0.656655
0.656655
0.656659
0.656664
0.656669
0.656673
0.656673
0.656678
0.656682
0.656687
0.656691
0.656691
0.656696
0.6567
0.656704
0.656709
0.656709
0.656713
0.656717
0.656722
0.656726
0.656726
0.65673
0.656735
0.656739
0.656743
0.656743
0.656747
0.656751
0.656756
0.65676
0.65676
0.656764
0.656768
0.656772
0.656777
0.656777
0.656781
0.656785
0.656789
0.656793
0.656793
0.656797
0.656802
0.656806
0.65681
0.65681
0.656814
0.656818
0.656823
0.656827
0.656827
0.656831
0.656835
0.656839
0.656844
0.656844
0.656848
0.656852
0.656856
0.656861
0.656861
0.656865
0.656869
0.656873
0.656878
0.656878
0.656882
0.656886
0.65689
0.656895
0.656895
0.656899
0.656903
0.656907
0.656912
0.656912
0.656916
0.65692
0.656925
0.656929
0.656929
0.656933
0.656938
0.656942
0.656946
0.656946
0.656951
0.656955
0.656959
0.656964
0.656964
0.656968
0.656972
0.656977
0.656981
0.656981
0.656985
0.65699
0.656994
0.656998
0.656998
0.657003
0.657007
0.657012
0.657016
0.657016
0.65702
0.657025
0.657029
0.657034
0.657034
0.657038
0.657042
0.657047
0.657051
0.657051
0.657056
0.65706
0.657065
0.657069
0.657069
0.657074
0.657078
0.657082
0.657087
0.657087
0.657091
0.657096
0.6571
0.657105
0.657105
0.657109
0.657114
0.657118
0.657123
0.657123
0.657127
0.657132
0.657136
0.657141
0.657141
0.657145
0.65715
0.657155
0.657159
0.657159
0.657164
0.657168
0.657173
0.657177
0.657177
0.657182
0.657186
0.657191
0.657196
0.657196
0.6572
0.657205
0.657209
0.657214
0.657214
0.657219
0.657223
0.657228
0.657232
0.657232
0.657237
0.657242
0.657246
0.657251
0.657251
0.657255
0.65726
0.657265
0.657269
0.657269
0.657274
0.657279
0.657283
0.657288
0.657288
0.657293
0.657297
0.657302
0.657307
0.657307
0.657312
0.657316
0.657321
0.657326
0.657326
0.65733
0.657335
0.65734
0.657345
0.657345
0.657349
0.657354
0.657359
0.657363
0.657363
0.657368
0.657373
0.657378
0.657383
0.657383
0.657387
0.657392
0.657397
0.657402
0.657402
0.657406
0.657411
0.657416
0.657421
0.657421
0.657426
0.65743
0.657435
0.65744
0.65744
0.657445
0.65745
0.657455
0.657459
0.657459
0.657464
0.657469
0.657474
0.657479
0.657479
0.657484
0.657489
0.657493
0.657498
0.657498
0.657503
0.657508
0.657513
0.657518
0.657518
0.657523
0.657528
0.657533
0.657538
0.657538
0.657542
0.657547
0.657552
0.657557
0.657557
0.657562
0.657567
0.657572
0.657577
0.657577
0.657582
0.657587
0.657592
0.657597
0.657597
0.657602
0.657607
0.657612
0.657617
0.657617
0.657622
0.657627
0.657632
0.657637
0.657637
0.657642
0.657647
0.657652
0.657657
0.657657
0.657662
0.657667
0.657672
0.657677
0.657677
0.657682
0.657687
0.657692
0.657697
0.657697
0.657703
0.657708
0.657713
0.657718
0.657718
0.657723
0.657728
0.657733
0.657738
0.657738
0.657743
0.657748
0.657753
0.657758
0.657758
0.657763
0.657768
0.657773
0.657778
0.657778
0.657783
0.657788
0.657793
0.657798
0.657798
0.657803
0.657807
0.657812
0.657817
0.657817
0.657822
0.657826
0.657831
0.657836
0.657836
0.657841
0.657845
0.65785
0.657854
0.657854
0.657859
0.657863
0.657868
0.657872
0.657872
0.657877
0.657881
0.657886
0.65789
0.65789
0.657894
0.657899
0.657903
0.657907
0.657907
0.657912
0.657916
0.65792
0.657925
0.657925
0.657929
0.657933
0.657938
0.657942
0.657942
0.657946
0.65795
0.657955
0.657959
0.657959
0.657963
0.657967
0.657972
0.657976
0.657976
0.65798
0.657984
0.657989
0.657993
0.657993
0.657997
0.658002
0.658006
0.65801
0.65801
0.658014
0.658019
0.658023
0.658027
0.658027
0.658032
0.658036
0.65804
0.658045
0.658045
0.658049
0.658053
0.658058
0.658062
0.658062
0.658066
0.658071
0.658075
0.65808
0.65808
0.658084
0.658088
0.658093
0.658097
0.658097
0.658101
0.658106
0.65811
0.658115
0.658115
0.658119
0.658123
0.658128
0.658132
0.658132
0.658137
0.658141
0.658146
0.65815
0.65815
0.658155
0.658159
0.658163
0.658168
0.658168
0.658172
0.658177
0.658181
0.658186
0.658186
0.65819
0.658195
0.658199
0.658204
0.658204
0.658208
0.658213
0.658217
0.658222
0.658222
0.658226
0.658231
0.658235
0.65824
0.65824
0.658244
0.658249
0.658253
0.658258
0.658258
0.658263
0.658267
0.658272
0.658276
0.658276
0.658281
0.658285
0.65829
0.658295
0.658295
0.658299
0.658304
0.658308
0.658313
0.658313
0.658318
0.658322
0.658327
0.658331
0.658331
0.658336
0.658341
0.658345
0.65835
0.65835
0.658355
0.658359
0.658364
0.658369
0.658369
0.658373
0.658378
0.658383
0.658387
0.658387
0.658392
0.658397
0.658401
0.658406
0.658406
0.658411
0.658415
0.65842
0.658425
0.658425
0.65843
0.658434
0.658439
0.658444
0.658444
0.658448
0.658453
0.658458
0.658463
0.658463
0.658467
0.658472
0.658477
0.658482
0.658482
0.658487
0.658491
0.658496
0.658501
0.658501
0.658506
0.658511
0.658515
0.65852
0.65852
0.658525
0.65853
0.658535
0.658539
0.658539
0.658544
0.658549
0.658554
0.658559
0.658559
0.658564
0.658569
0.658573
0.658578
0.658578
0.658583
0.658588
0.658593
0.658598
0.658598
0.658603
0.658608
0.658612
0.658617
0.658617
0.658622
0.658627
0.658632
0.658637
0.658637
0.658642
0.658647
0.658652
0.658657
0.658657
0.658662
0.658667
0.658672
0.658677
0.658677
0.658682
0.658687
0.658692
0.658696
0.658696
0.658701
0.658706
0.658711
0.658716
0.658716
0.658721
0.658726
0.658731
0.658736
0.658736
0.658741
0.658746
0.658751
0.658756
0.658756
0.658761
0.658766
0.658771
0.658776
0.658776
0.65878
0.658785
0.65879
0.658795
0.658795
0.6588
0.658804
0.658809
0.658814
0.658814
0.658819
0.658823
0.658828
0.658832
0.658832
0.658837
0.658842
0.658846
0.658851
0.658851
0.658855
0.65886
0.658864
0.658868
0.658868
0.658873
0.658877
0.658882
0.658886
0.658886
0.65889
0.658894
0.658899
0.658903
0.658903
0.658907
0.658911
0.658916
0.65892
0.65892
0.658924
0.658928
0.658933
0.658937
0.658937
0.658941
0.658945
0.658949
0.658954
0.658954
0.658958
0.658962
0.658966
0.65897
0.65897
0.658974
0.658979
0.658983
0.658987
0.658987
0.658991
0.658996
0.659
0.659004
0.659004
0.659008
0.659012
0.659017
0.659021
0.659021
0.659025
0.659029
0.659034
0.659038
0.659038
0.659042
0.659046
0.659051
0.659055
0.659055
0.659059
0.659064
0.659068
0.659072
0.659072
0.659076
0.659081
0.659085
0.659089
0.659089
0.659094
0.659098
0.659102
0.659107
0.659107
0.659111
0.659115
0.65912
0.659124
0.659124
0.659128
0.659133
0.659137
0.659141
0.659141
0.659146
0.65915
0.659155
0.659159
0.659159
0.659163
0.659168
0.659172
0.659177
0.659177
0.659181
0.659185
0.65919
0.659194
0.659194
0.659199
0.659203
0.659207
0.659212
0.659212
0.659216
0.659221
0.659225
0.65923
0.65923
0.659234
0.659239
0.659243
0.659248
0.659248
0.659252
0.659257
0.659261
0.659266
0.659266
0.65927
0.659275
0.659279
0.659284
0.659284
0.659288
0.659293
0.659297
0.659302
0.659302
0.659306
0.659311
0.659315
0.65932
0.65932
0.659324
0.659329
0.659334
0.659338
0.659338
0.659343
0.659347
0.659352
0.659357
0.659357
0.659361
0.659366
0.65937
0.659375
0.659375
0.65938
0.659384
0.659389
0.659393
0.659393
0.659398
0.659403
0.659407
0.659412
0.659412
0.659417
0.659421
0.659426
0.659431
0.659431
0.659435
0.65944
0.659445
0.659449
0.659449
0.659454
0.659459
0.659463
0.659468
0.659468
0.659473
0.659478
0.659482
0.659487
0.659487
0.659492
0.659497
0.659501
0.659506
0.659506
0.659511
0.659515
0.65952
0.659525
0.659525
0.65953
0.659535
0.659539
0.659544
0.659544
0.659549
0.659554
0.659558
0.659563
0.659563
0.659568
0.659573
0.659578
0.659582
0.659582
0.659587
0.659592
0.659597
0.659602
0.659602
0.659606
0.659611
0.659616
0.659621
0.659621
0.659625
0.65963
0.659635
0.659639
0.659639
0.659644
0.659649
0.659653
0.659658
0.659658
0.659663
0.659667
0.659672
0.659676
0.659676
0.659681
0.659685
0.65969
0.659694
0.659694
0.659699
0.659703
0.659707
0.659712
0.659712
0.659716
0.659721
0.659725
0.659729
0.659729
0.659733
0.659738
0.659742
0.659746
0.659746
0.65975
0.659754
0.659758
0.659763
0.659763
0.659767
0.659771
0.659775
0.659779
0.659779
0.659783
0.659787
0.659791
0.659795
0.659795
0.659799
0.659803
0.659808
0.659812
0.659812
0.659816
0.65982
0.659824
0.659828
0.659828
0.659832
0.659836
0.65984
0.659844
0.659844
0.659848
0.659852
0.659856
0.65986
0.65986
0.659865
0.659869
0.659873
0.659877
0.659877
0.659881
0.659885
0.659889
0.659893
0.659893
0.659897
0.659902
0.659906
0.65991
0.65991
0.659914
0.659918
0.659922
0.659926
0.659926
0.659931
0.659935
0.659939
0.659943
0.659943
0.659947
0.659952
0.659956
0.65996
0.65996
0.659964
0.659968
0.659973
0.659977
0.659977
0.659981
0.659985
0.659989
0.659994
0.659994
0.659998
0.660002
0.660006
0.660011
0.660011
0.660015
0.660019
0.660023
0.660028
0.660028
0.660032
0.660036
0.660041
0.660045
0.660045
0.660049
0.660053
0.660058
0.660062
0.660062
0.660066
0.660071
0.660075
0.660079
0.660079
0.660084
0.660088
0.660092
0.660097
0.660097
0.660101
0.660105
0.66011
0.660114
0.660114
0.660119
0.660123
0.660127
0.660132
0.660132
0.660136
0.660141
0.660145
0.660149
0.660149
0.660154
0.660158
0.660163
0.660167
0.660167
0.660171
0.660176
0.66018
0.660185
0.660185
0.660189
0.660194
0.660198
0.660203
0.660203
0.660207
0.660212
0.660216
0.660221
0.660221
0.660225
0.66023
0.660234
0.660239
0.660239
0.660243
0.660248
0.660252
0.660257
0.660257
0.660261
0.660266
0.66027
0.660275
0.660275
0.660279
0.660284
0.660289
0.660293
0.660293
0.660298
0.660302
0.660307
0.660311
0.660311
0.660316
0.660321
0.660325
0.66033
0.66033
0.660334
0.660339
0.660343
0.660348
0.660348
0.660353
0.660357
0.660362
0.660366
0.660366
0.660371
0.660375
0.66038
0.660384
0.660384
0.660389
0.660393
0.660398
0.660402
0.660402
0.660407
0.660411
0.660416
0.66042
0.66042
0.660424
0.660429
0.660433
0.660437
0.660437
0.660442
0.660446
0.66045
0.660455
0.660455
0.660459
0.660463
0.660467
0.660471
0.660471
0.660475
0.66048
0.660484
0.660488
0.660488
0.660492
0.660496
0.6605
0.660504
0.660504
0.660508
0.660512
0.660516
0.66052
0.66052
0.660524
0.660528
0.660532
0.660536
0.660536
0.66054
0.660544
0.660547
0.660551
0.660551
0.660555
0.660559
0.660563
0.660567
0.660567
0.660571
0.660575
0.660579
0.660583
0.660583
0.660587
0.660591
0.660595
0.660598
0.660598
0.660602
0.660606
0.66061
0.660614
0.660614
0.660618
0.660622
0.660626
0.66063
0.66063
0.660634
0.660638
0.660642
0.660646
0.660646
0.66065
0.660654
0.660658
0.660662
0.660662
0.660666
0.66067
0.660674
0.660678
0.660678
0.660682
0.660686
0.66069
0.660694
0.660694
0.660698
0.660702
0.660706
0.660711
0.660711
0.660715
0.660719
0.660723
0.660727
0.660727
0.660731
0.660735
0.660739
0.660743
0.660743
0.660747
0.660752
0.660756
0.66076
0.66076
0.660764
0.660768
0.660772
0.660776
0.660776
0.66078
0.660785
0.660789
0.660793
0.660793
0.660797
0.660801
0.660805
0.66081
0.66081
0.660814
0.660818
0.660822
0.660826
0.660826
0.660831
0.660835
0.660839
0.660843
0.660843
0.660848
0.660852
0.660856
0.66086
0.66086
0.660865
0.660869
0.660873
0.660877
0.660877
0.660882
0.660886
0.66089
0.660894
0.660894
0.660899
0.660903
0.660907
0.660912
0.660912
0.660916
0.66092
0.660925
0.660929
0.660929
0.660933
0.660938
0.660942
0.660946
0.660946
0.660951
0.660955
0.660959
0.660964
0.660964
0.660968
0.660972
0.660977
0.660981
0.660981
0.660986
0.66099
0.660994
0.660999
0.660999
0.661003
0.661008
0.661012
0.661016
0.661016
0.661021
0.661025
0.661029
0.661034
0.661034
0.661038
0.661042
0.661047
0.661051
0.661051
0.661055
0.66106
0.661064
0.661068
0.661068
0.661073
0.661077
0.661081
0.661085
0.661085
0.66109
0.661094
0.661098
0.661102
0.661102
0.661106
0.66111
0.661114
0.661118
0.661118
0.661123
0.661127
0.661131
0.661135
0.661135
0.661139
0.661143
0.661147
0.661151
0.661151
0.661155
0.661158
0.661162
0.661166
0.661166
0.66117
0.661174
0.661178
0.661182
0.661182
0.661186
0.661189
0.661193
0.661197
0.661197
0.661201
0.661205
0.661208
0.661212
0.661212
0.661216
0.66122
0.661224
0.661227
0.661227
0.661231
0.661235
0.661239
0.661242
0.661242
0.661246
0.66125
0.661254
0.661258
0.661258
0.661262
0.661265
0.661269
0.661273
0.661273
0.661277
0.661281
0.661284
0.661288
0.661288
0.661292
0.661296
0.6613
0.661304
0.661304
0.661308
0.661311
0.661315
0.661319
0.661319
0.661323
0.661327
0.661331
0.661335
0.661335
0.661339
0.661343
0.661347
0.66135
0.66135
0.661354
0.661358
0.661362
0.661366
0.661366
0.66137
0.661374
0.661378
0.661382
0.661382
0.661386
0.66139
0.661394
0.661398
0.661398
0.661402
0.661406
0.66141
0.661414
0.661414
0.661418
0.661422
0.661426
0.66143
0.66143
0.661434
0.661438
0.661442
0.661446
0.661446
0.66145
0.661454
0.661458
0.661462
0.661462
0.661467
0.661471
0.661475
0.661479
0.661479
0.661483
0.661487
0.661491
0.661495
0.661495
0.661499
0.661503
0.661508
0.661512
0.661512
0.661516
0.66152
0.661524
0.661528
0.661528
0.661532
0.661537
0.661541
0.661545
0.661545
0.661549
0.661553
0.661557
0.661562
0.661562
0.661566
0.66157
0.661574
0.661578
0.661578
0.661583
0.661587
0.661591
0.661595
0.661595
0.661599
0.661604
0.661608
0.661612
0.661612
0.661616
0.66162
0.661625
0.661629
0.661629
0.661633
0.661637
0.661641
0.661646
0.661646
0.66165
0.661654
0.661658
0.661662
0.661662
0.661666
0.66167
0.661675
0.661679
0.661679
0.661683
0.661687
0.661691
0.661695
0.661695
0.661699
0.661703
0.661707
0.661711
0.661711
0.661715
0.661719
0.661723
0.661726
0.661726
0.66173
0.661734
0.661738
0.661742
0.661742
0.661746
0.66175
0.661753
0.661757
0.661757
0.661761
0.661765
0.661769
0.661772
0.661772
0.661776
0.66178
0.661783
0.661787
0.661787
0.661791
0.661795
0.661798
0.661802
0.661802
0.661806
0.661809
0.661813
0.661817
0.661817
0.66182
0.661824
0.661828
0.661832
0.661832
0.661835
0.661839
0.661843
0.661846
0.661846
0.66185
0.661854
0.661858
0.661861
0.661861
0.661865
0.661869
0.661872
0.661876
0.661876
0.66188
0.661884
0.661887
0.661891
0.661891
0.661895
0.661899
0.661903
0.661906
0.661906
0.66191
0.661914
0.661918
0.661921
0.661921
0.661925
0.661929
0.661933
0.661937
0.661937
0.661941
0.661944
0.661948
0.661952
0.661952
0.661956
0.66196
0.661964
0.661968
0.661968
0.661971
0.661975
0.661979
0.661983
0.661983
0.661987
0.661991
0.661995
0.661999
0.661999
0.662003
0.662006
0.66201
0.662014
0.662014
0.662018
0.662022
0.662026
0.66203
0.66203
0.662034
0.662038
0.662042
0.662046
0.662046
0.66205
0.662054
0.662058
0.662062
0.662062
0.662066
0.66207
0.662074
0.662078
0.662078
0.662082
0.662086
0.66209
0.662094
0.662094
0.662098
0.662102
0.662106
0.66211
0.66211
0.662114
0.662118
0.662122
0.662126
0.662126
0.662131
0.662135
0.662139
0.662143
0.662143
0.662147
0.662151
0.662155
0.662159
0.662159
0.662163
0.662167
0.662171
0.662175
0.662175
0.662179
0.662183
0.662187
0.662192
0.662192
0.662196
0.6622
0.662204
0.662208
0.662208
0.662212
0.662216
0.66222
0.662223
0.662223
0.662227
0.662231
0.662235
0.662239
0.662239
0.662243
0.662247
0.662251
0.662255
0.662255
0.662258
0.662262
0.662266
0.66227
0.66227
0.662274
0.662278
0.662281
0.662285
0.662285
0.662289
0.662293
0.662296
0.6623
0.6623
0.662304
0.662307
0.662311
0.662315
0.662315
0.662318
0.662322
0.662326
0.662329
0.662329
0.662333
0.662337
0.66234
0.662344
0.662344
0.662348
0.662351
0.662355
0.662358
0.662358
0.662362
0.662366
0.662369
0.662373
0.662373
0.662377
0.66238
0.662384
0.662388
0.662388
0.662391
0.662395
0.662398
0.662402
0.662402
0.662406
0.662409
0.662413
0.662417
0.662417
0.662421
0.662424
0.662428
0.662432
0.662432
0.662435
0.662439
0.662443
0.662446
0.662446
0.66245
0.662454
0.662458
0.662461
0.662461
0.662465
0.662469
0.662473
0.662476
0.662476
0.66248
0.662484
0.662488
0.662492
0.662492
0.662495
0.662499
0.662503
0.662507
0.662507
0.662511
0.662514
0.662518
0.662522
0.662522
0.662526
0.66253
0.662534
0.662538
0.662538
0.662541
0.662545
0.662549
0.662553
0.662553
0.662557
0.662561
0.662565
0.662569
0.662569
0.662572
0.662576
0.66258
0.662584
0.662584
0.662588
0.662592
0.662596
0.6626
0.6626
0.662604
0.662608
0.662612
0.662616
0.662616
0.66262
0.662624
0.662628
0.662632
0.662632
0.662636
0.66264
0.662644
0.662647
0.662647
0.662651
0.662655
0.662659
0.662663
0.662663
0.662667
0.662671
0.662675
0.662679
0.662679
0.662683
0.662687
0.662691
0.662695
0.662695
0.662699
0.662703
0.662707
0.662711
0.662711
0.662715
0.662718
0.662722
0.662726
0.662726
0.66273
0.662734
0.662738
0.662742
0.662742
0.662745
0.662749
0.662753
0.662757
0.662757
0.66276
0.662764
0.662768
0.662772
0.662772
0.662775
0.662779
0.662783
0.662787
0.662787
0.66279
0.662794
0.662798
0.662801
0.662801
0.662805
0.662809
0.662812
0.662816
0.662816
0.66282
0.662823
0.662827
0.66283
0.66283
0.662834
0.662838
0.662841
0.662845
0.662845
0.662848
0.662852
0.662856
0.662859
0.662859
0.662863
0.662866
0.66287
0.662874
0.662874
0.662877
0.662881
0.662884
0.662888
0.662888