<?xml version="1.0"?>
<VTKFile type="UnstructuredGrid" version="0.1" byte_order="LittleEndian">
<UnstructuredGrid>
<Piece NumberOfPoints="5000" NumberOfCells="4000">
<PointData Scalars="Reaction 0">
<DataArray type="Float32" Name="Reaction 0" format="ascii">
0.982425
0.982425
0.982425
0.982425
0.982425
0.982425
0.982425
0.982425
0.982425
0.982425
0.982425
0.982425
0.982425
0.982425
0.982425
0.982425
0.982425
0.982425
0.982425
0.982425
0.982425
0.982425
0.982425
0.982425
0.982425
0.982425
0.982425
0.982425
0.982425
0.982425
0.982425
0.982425
0.982425
0.982425
0.982425
0.982425
0.982425
0.982425
0.982425
0.982425
0.982425
0.982425
0.982425
0.982425
0.982425
0.982425
0.982425
0.982425
0.982425
0.982426
0.982426
0.982426
0.982426
0.982426
0.982426
0.982426
0.982426
0.982426
0.982426
0.982426
0.982426
0.982426
0.982426
0.982426
0.982426
0.982426
0.982426
0.982426
0.982426
0.982426
0.982426
0.982426
0.982426
0.982426
0.982426
0.982426
0.982426
0.982427
0.982427
0.982427
0.982427
0.982427
0.982427
0.982427
0.982427
0.982427
0.982427
0.982427
0.982427
0.982427
0.982427
0.982427
0.982427
0.982427
0.982427
0.982427
0.982427
0.982428
0.982428
0.982428
0.982428
0.982428
0.982428
0.982428
0.982428
0.982428
0.982428
0.982428
0.982428
0.982428
0.982428
0.982428
0.982428
0.982428
0.982429
0.982429
0.982429
0.982429
0.982429
0.982429
0.982429
0.982429
0.982429
0.982429
0.982429
0.982429
0.982429
0.982429
0.98243
0.98243
0.98243
0.98243
0.98243
0.98243
0.98243
0.98243
0.98243
0.98243
0.98243
0.98243
0.98243
0.98243
0.982431
0.982431
0.982431
0.982431
0.982431
0.982431
0.982431
0.982431
0.982431
0.982431
0.982431
0.982432
0.982432
0.982432
0.982432
0.982432
0.982432
0.982432
0.982432
0.982432
0.982432
0.982432
0.982433
0.982433
0.982433
0.982433
0.982433
0.982433
0.982433
0.982433
0.982433
0.982433
0.982434
0.982434
0.982434
0.982434
0.982434
0.982434
0.982434
0.982434
0.982434
0.982434
0.982435
0.982435
0.982435
0.982435
0.982435
0.982435
0.982435
0.982435
0.982435
0.982436
0.982436
0.982436
0.982436
0.982436
0.982436
0.982436
0.982436
0.982436
0.982436
0.982437
0.982437
0.982437
0.982437
0.982437
0.982437
0.982437
0.982437
0.982438
0.982438
0.982438
0.982438
0.982438
0.982438
0.982438
0.982438
0.982439
0.982439
0.982439
0.982439
0.982439
0.982439
0.982439
0.982439
0.98244
0.98244
0.98244
0.98244
0.98244
0.98244
0.98244
0.982441
0.982441
0.982441
0.982441
0.982441
0.982441
0.982441
0.982441
0.982442
0.982442
0.982442
0.982442
0.982442
0.982442
0.982442
0.982443
0.982443
0.982443
0.982443
0.982443
0.982443
0.982443
0.982444
0.982444
0.982444
0.982444
0.982444
0.982444
0.982444
0.982445
0.982445
0.982445
0.982445
0.982445
0.982445
0.982446
0.982446
0.982446
0.982446
0.982446
0.982446
0.982446
0.982447
0.982447
0.982447
0.982447
0.982447
0.982447
0.982448
0.982448
0.982448
0.982448
0.982448
0.982448
0.982449
0.982449
0.982449
0.982449
0.982449
0.982449
0.98245
0.98245
0.98245
0.98245
0.98245
0.98245
0.98245
0.982451
0.982451
0.982451
0.982451
0.982451
0.982452
0.982452
0.982452
0.982452
0.982452
0.982452
0.982453
0.982453
0.982453
0.982453
0.982453
0.982454
0.982454
0.982454
0.982454
0.982454
0.982454
0.982455
0.982455
0.982455
0.982455
0.982455
0.982456
0.982456
0.982456
0.982456
0.982456
0.982457
0.982457
0.982457
0.982457
0.982457
0.982458
0.982458
0.982458
0.982458
0.982458
0.982458
0.982459
0.982459
0.982459
0.982459
0.982459
0.98246
0.98246
0.98246
0.98246
0.98246
0.982461
0.982461
0.982461
0.982461
0.982461
0.982462
0.982462
0.982462
0.982462
0.982463
0.982463
0.982463
0.982463
0.982463
0.982464
0.982464
0.982464
0.982464
0.982464
0.982465
0.982465
0.982465
0.982465
0.982465
0.982466
0.982466
0.982466
0.982466
0.982466
0.982467
0.982467
0.982467
0.982467
0.982468
0.982468
0.982468
0.982468
0.982468
0.982469
0.982469
0.982469
0.982469
0.98247
0.98247
0.98247
0.98247
0.98247
0.982471
0.982471
0.982471
0.982472
0.982472
0.982472
0.982472
0.982472
0.982473
0.982473
0.982473
0.982473
0.982474
0.982474
0.982474
0.982474
0.982474
0.982475
0.982475
0.982475
0.982475
0.982476
0.982476
0.982476
0.982476
0.982477
0.982477
0.982477
0.982477
0.982477
0.982478
0.982478
0.982478
0.982479
0.982479
0.982479
0.982479
0.98248
0.98248
0.98248
0.98248
0.982481
0.982481
0.982481
0.982481
0.982482
0.982482
0.982482
0.982482
0.982482
0.982483
0.982483
0.982483
0.982484
0.982484
0.982484
0.982484
0.982485
0.982485
0.982485
0.982485
0.982486
0.982486
0.982486
0.982486
0.982487
0.982487
0.982487
0.982488
0.982488
0.982488
0.982488
0.982489
0.982489
0.982489
0.982489
0.98249
0.98249
0.98249
0.98249
0.982491
0.982491
0.982491
0.982492
0.982492
0.982492
0.982492
0.982493
0.982493
0.982493
0.982494
0.982494
0.982494
0.982495
0.982495
0.982495
0.982495
0.982496
0.982496
0.982496
0.982496
0.982497
0.982497
0.982497
0.982497
0.982498
0.982498
0.982499
0.982499
0.982499
0.982499
0.9825
0.9825
0.9825
0.9825
0.982501
0.982501
0.982501
0.982502
0.982502
0.982502
0.982503
0.982503
0.982503
0.982503
0.982504
0.982504
0.982504
0.982505
0.982505
0.982505
0.982506
0.982506
0.982506
0.982506
0.982507
0.982507
0.982507
0.982508
0.982508
0.982508
0.982509
0.982509
0.982509
0.982509
0.98251
0.98251
0.982511
0.982511
0.982511
0.982511
0.982512
0.982512
0.982513
0.982513
0.982513
0.982513
0.982514
0.982514
0.982514
0.982514
0.982515
0.982515
0.982516
0.982516
0.982516
0.982516
0.982517
0.982517
0.982517
0.982518
0.982518
0.982519
0.982519
0.982519
0.982519
0.98252
0.98252
0.982521
0.982521
0.982521
0.982521
0.982522
0.982522
0.982522
0.982523
0.982523
0.982523
0.982524
0.982524
0.982524
0.982525
0.982525
0.982526
0.982526
0.982526
0.982526
0.982527
0.982527
0.982527
0.982528
0.982528
0.982529
0.982529
0.982529
0.982529
0.98253
0.98253
0.982531
0.982531
0.982531
0.982532
0.982532
0.982532
0.982532
0.982533
0.982533
0.982534
0.982534
0.982534
0.982535
0.982535
0.982536
0.982536
0.982536
0.982536
0.982537
0.982537
0.982538
0.982538
0.982538
0.982539
0.982539
0.98254
0.98254
0.98254
0.98254
0.982541
0.982541
0.982541
0.982542
0.982542
0.982543
0.982543
0.982543
0.982544
0.982544
0.982545
0.982545
0.982545
0.982545
0.982546
0.982546
0.982547
0.982547
0.982547
0.982548
0.982548
0.982549
0.982549
0.982549
0.98255
0.98255
0.982551
0.982551
0.982551
0.982552
0.982552
0.982553
0.982553
0.982553
0.982553
0.982554
0.982554
0.982554
0.982555
0.982555
0.982556
0.982556
0.982556
0.982557
0.982557
0.982558
0.982558
0.982558
0.982559
0.982559
0.98256
0.98256
0.98256
0.982561
0.982561
0.982562
0.982562
0.982562
0.982563
0.982563
0.982564
0.982564
0.982564
0.982565
0.982565
0.982566
0.982566
0.982566
0.982567
0.982567
0.982568
0.982568
0.982568
0.982569
0.982569
0.98257
0.98257
0.98257
0.982571
0.982571
0.982572
0.982572
0.982572
0.982573
0.982573
0.982574
0.982574
0.982574
0.982575
0.982575
0.982576
0.982576
0.982576
0.982577
0.982577
0.982578
0.982578
0.982578
0.982579
0.982579
0.98258
0.982581
0.982581
0.982581
0.982582
0.982582
0.982583
0.982583
0.982583
0.982584
0.982584
0.982585
0.982585
0.982585
0.982586
0.982586
0.982587
0.982587
0.982587
0.982588
0.982589
0.982589
0.982589
0.98259
0.98259
0.982591
0.982591
0.982591
0.982592
0.982592
0.982593
0.982593
0.982593
0.982594
0.982594
0.982595
0.982596
0.982596
0.982596
0.982597
0.982597
0.982598
0.982598
0.982598
0.982599
0.982599
0.9826
0.9826
0.982601
0.982601
0.982602
0.982602
0.982602
0.982603
0.982603
0.982604
0.982604
0.982604
0.982605
0.982606
0.982606
0.982607
0.982607
0.982607
0.982608
0.982608
0.982609
0.982609
0.98261
0.98261
0.982611
0.982611
0.982611
0.982612
0.982612
0.982613
0.982614
0.982614
0.982614
0.982615
0.982615
0.982616
0.982616
0.982616
0.982617
0.982618
0.982618
0.982618
0.982619
0.982619
0.98262
0.982621
0.982621
0.982621
0.982622
0.982622
0.982623
0.982623
0.982624
0.982624
0.982625
0.982625
0.982625
0.982626
0.982627
0.982627
0.982628
0.982628
0.982628
0.982629
0.98263
0.98263
0.98263
0.982631
0.982631
0.982632
0.982633
0.982633
0.982633
0.982634
0.982634
0.982635
0.982635
0.982636
0.982636
0.982637
0.982637
0.982637
0.982638
0.982639
0.982639
0.98264
0.98264
0.98264
0.982641
0.982642
0.982642
0.982642
0.982643
0.982644
0.982644
0.982645
0.982645
0.982645
0.982646
0.982647
0.982647
0.982647
0.982648
0.982649
0.982649
0.98265
0.98265
0.98265
0.982651
0.982652
0.982652
0.982652
0.982653
0.982654
0.982654
0.982655
0.982655
0.982656
0.982656
0.982657
0.982657
0.982657
0.982658
0.982659
0.982659
0.98266
0.98266
0.982661
0.982661
0.982662
0.982663
0.982663
0.982663
0.982664
0.982665
0.982665
0.982665
0.982666
0.982666
0.982667
0.982668
0.982668
0.982668
0.982669
0.98267
0.98267
0.98267
0.982671
0.982672
0.982672
0.982673
0.982673
0.982674
0.982674
0.982675
0.982676
0.982676
0.982676
0.982677
0.982678
0.982678
0.982678
0.982679
0.98268
0.98268
0.982681
0.982681
0.982682
0.982682
0.982683
0.982684
0.982684
0.982684
0.982685
0.982686
0.982686
0.982686
0.982687
0.982688
0.982688
0.982689
0.982689
0.98269
0.982691
0.982691
0.982692
0.982692
0.982693
0.982693
0.982694
0.982695
0.982695
0.982695
0.982696
0.982697
0.982697
0.982697
0.982698
0.982699
0.982699
0.9827
0.9827
0.982701
0.982702
0.982702
0.982703
0.982703
0.982704
0.982704
0.982705
0.982706
0.982706
0.982706
0.982707
0.982708
0.982709
0.982709
0.982709
0.98271
0.982711
0.982711
0.982711
0.982712
0.982713
0.982714
0.982714
0.982714
0.982715
0.982716
0.982716
0.982717
0.982717
0.982718
0.982719
0.982719
0.98272
0.98272
0.982721
0.982721
0.982722
0.982723
0.982723
0.982724
0.982724
0.982725
0.982726
0.982726
0.982726
0.982727
0.982728
0.982729
0.982729
0.982729
0.98273
0.982731
0.982732
0.982732
0.982732
0.982733
0.982734
0.982735
0.982735
0.982735
0.982736
0.982737
0.982737
0.982737
0.982738
0.982739
0.98274
0.98274
0.98274
0.982741
0.982742
0.982743
0.982743
0.982743
0.982744
0.982745
0.982746
0.982746
0.982746
0.982747
0.982748
0.982749
0.982749
0.982749
0.98275
0.982751
0.982752
0.982752
0.982752
0.982753
0.982754
0.982755
0.982756
0.982756
0.982756
0.982757
0.982758
0.982759
0.982759
0.982759
0.98276
0.982761
0.982762
0.982762
0.982762
0.982763
0.982764
0.982765
0.982765
0.982765
0.982766
0.982767
0.982768
0.982768
0.982769
0.982769
0.98277
0.982771
0.982771
0.982772
0.982772
0.982773
0.982774
0.982774
0.982775
0.982776
0.982776
0.982777
0.982777
0.982778
0.982779
0.98278
0.98278
0.98278
0.982781
0.982782
0.982783
0.982783
0.982783
0.982784
0.982785
0.982786
0.982787
0.982787
0.982787
0.982788
0.982789
0.98279
0.98279
0.982791
0.982791
0.982792
0.982793
0.982793
0.982794
0.982795
0.982795
0.982796
0.982796
0.982797
0.982798
0.982799
0.982799
0.982799
0.9828
0.982801
0.982802
0.982803
0.982803
0.982804
0.982804
0.982805
0.982806
0.982806
0.982807
0.982808
0.982808
0.982809
0.982809
0.98281
0.982811
0.982812
0.982813
0.982813
0.982813
0.982814
0.982815
0.982816
0.982816
0.982817
0.982817
0.982818
0.982819
0.982819
0.98282
0.982821
0.982822
0.982822
0.982822
0.982823
0.982824
0.982825
0.982826
0.982826
0.982827
0.982827
0.982828
0.982829
0.982829
0.98283
0.982831
0.982832
0.982833
0.982833
0.982833
0.982834
0.982835
0.982836
0.982836
0.982837
0.982838
0.982838
0.982839
0.982839
0.98284
0.982841
0.982842
0.982843
0.982843
0.982844
0.982844
0.982845
0.982846
0.982846
0.982847
0.982848
0.982849
0.98285
0.98285
0.98285
0.982851
0.982852
0.982853
0.982853
0.982854
0.982855
0.982856
0.982856
0.982856
0.982857
0.982858
0.982859
0.98286
0.98286
0.982861
0.982862
0.982863
0.982863
0.982863
0.982864
0.982865
0.982866
0.982867
0.982867
0.982868
0.982869
0.98287
0.98287
0.98287
0.982871
0.982872
0.982873
0.982874
0.982874
0.982875
0.982876
0.982877
0.982878
0.982878
0.982878
0.982879
0.98288
0.982881
0.982881
0.982882
0.982883
0.982884
0.982885
0.982885
0.982886
0.982886
0.982887
0.982888
0.982888
0.982889
0.98289
0.982891
0.982892
0.982892
0.982893
0.982894
0.982895
0.982895
0.982895
0.982896
0.982897
0.982898
0.982899
0.982899
0.9829
0.982901
0.982902
0.982903
0.982903
0.982904
0.982905
0.982905
0.982906
0.982906
0.982907
0.982908
0.982909
0.98291
0.98291
0.982911
0.982912
0.982913
0.982914
0.982914
0.982915
0.982916
0.982917
0.982917
0.982917
0.982918
0.982919
0.98292
0.982921
0.982921
0.982922
0.982923
0.982924
0.982925
0.982925
0.982926
0.982927
0.982928
0.982929
0.982929
0.98293
0.98293
0.982931
0.982932
0.982932
0.982933
0.982934
0.982935
0.982936
0.982936
0.982937
0.982938
0.982939
0.98294
0.98294
0.982941
0.982942
0.982943
0.982944
0.982944
0.982945
0.982946
0.982947
0.982947
0.982947
0.982948
0.982949
0.98295
0.982951
0.982951
0.982952
0.982953
0.982954
0.982955
0.982955
0.982956
0.982957
0.982958
0.982959
0.982959
0.98296
0.982961
0.982962
0.982963
0.982963
0.982964
0.982965
0.982966
0.982967
0.982967
0.982968
0.982969
0.98297
0.982971
0.982971
0.982972
0.982972
0.982973
0.982974
0.982974
0.982975
0.982976
0.982977
0.982978
0.982978
0.982979
0.98298
0.982981
0.982982
0.982982
0.982983
0.982984
0.982985
0.982986
0.982986
0.982987
0.982988
0.982989
0.98299
0.98299
0.982991
0.982992
0.982993
0.982994
0.982994
0.982995
0.982996
0.982997
0.982998
0.982998
0.982999
0.983
0.983001
0.983002
0.983002
0.983003
0.983004
0.983005
0.983006
0.983006
0.983007
0.983008
0.983009
0.98301
0.98301
0.983011
0.983012
0.983013
0.983014
0.983014
0.983015
0.983016
0.983017
0.983018
0.983018
0.983019
0.98302
0.983021
0.983022
0.983022
0.983023
0.983024
0.983025
0.983026
0.983026
0.983027
0.983028
0.983029
0.98303
0.98303
0.983031
0.983032
0.983033
0.983034
0.983034
0.983036
0.983037
0.983038
0.983039
0.983039
0.98304
0.983041
0.983042
0.983043
0.983043
0.983044
0.983045
0.983046
0.983047
0.983047
0.983048
0.983049
0.98305
0.983051
0.983051
0.983052
0.983053
0.983054
0.983055
0.983055
0.983056
0.983057
0.983058
0.983059
0.983059
0.98306
0.983061
0.983062
0.983064
0.983064
0.983065
0.983066
0.983067
0.983068
0.983068
0.983069
0.98307
0.983071
0.983072
0.983072
0.983073
0.983074
0.983075
0.983076
0.983076
0.983077
0.983078
0.983079
0.98308
0.98308
0.983081
0.983083
0.983084
0.983085
0.983085
0.983086
0.983087
0.983088
0.983089
0.983089
0.98309
0.983091
0.983092
0.983093
0.983093
0.983094
0.983095
0.983096
0.983098
0.983098
0.983099
0.9831
0.983101
0.983102
0.983102
0.983103
0.983104
0.983105
0.983106
0.983106
0.983107
0.983108
0.983109
0.983111
0.983111
0.983112
0.983113
0.983114
0.983115
0.983115
0.983116
0.983117
0.983118
0.983119
0.983119
0.98312
0.983121
0.983123
0.983124
0.983124
0.983125
0.983126
0.983127
0.983128
0.983128
0.983129
0.98313
0.983131
0.983132
0.983132
0.983133
0.983135
0.983136
0.983137
0.983137
0.983138
0.983139
0.98314
0.983141
0.983141
0.983142
0.983143
0.983145
0.983146
0.983146
0.983147
0.983148
0.983149
0.98315
0.98315
0.983151
0.983152
0.983153
0.983155
0.983155
0.983156
0.983157
0.983158
0.983159
0.983159
0.98316
0.983161
0.983162
0.983164
0.983164
0.983165
0.983166
0.983167
0.983168
0.983168
0.983169
0.98317
0.983171
0.983173
0.983173
0.983174
0.983175
0.983176
0.983177
0.983177
0.983178
0.983179
0.983181
0.983182
0.983182
0.983183
0.983184
0.983185
0.983186
0.983186
0.983187
0.983189
0.98319
0.983191
0.983191
0.983192
0.983193
0.983194
0.983195
0.983195
0.983197
0.983198
0.983199
0.9832
0.9832
0.983201
0.983202
0.983203
0.983205
0.983205
0.983206
0.983207
0.983208
0.983209
0.983209
0.98321
0.983212
0.983213
0.983214
0.983214
0.983215
0.983216
0.983217
0.983219
0.983219
0.98322
0.983221
0.983222
0.983223
0.983223
0.983224
0.983226
0.983227
0.983228
0.983228
0.983229
0.98323
0.983231
0.983233
0.983233
0.983234
0.983235
0.983236
0.983237
0.983237
0.983238
0.98324
0.983241
0.983242
0.983242
0.983243
0.983244
0.983246
0.983247
0.983247
0.983248
0.983249
0.98325
0.983251
0.983251
0.983253
0.983254
0.983255
0.983256
0.983256
0.983257
0.983259
0.98326
0.983261
0.983261
0.983262
0.983263
0.983265
0.983266
0.983266
0.983267
0.983268
0.983269
0.983271
0.983271
0.983272
0.983273
0.983274
0.983275
0.983275
0.983277
0.983278
0.983279
0.98328
0.98328
0.983281
0.983283
0.983284
0.983285
0.983285
0.983286
0.983287
0.983289
0.98329
0.98329
0.983291
0.983292
0.983294
0.983295
0.983295
0.983296
0.983297
0.983298
0.9833
0.9833
0.983301
0.983302
0.983303
0.983305
0.983305
0.983306
0.983307
0.983308
0.983309
0.983309
0.983311
0.983312
0.983313
0.983314
0.983314
0.983316
0.983317
0.983318
0.983319
0.983319
0.98332
0.983322
0.983323
0.983324
0.983324
0.983325
0.983327
0.983328
0.983329
0.983329
0.98333
0.983332
0.983333
0.983334
0.983334
0.983335
0.983337
0.983338
0.983339
0.983339
0.98334
0.983342
0.983343
0.983344
0.983344
0.983345
0.983347
0.983348
0.983349
0.983349
0.98335
0.983352
0.983353
0.983354
0.983354
0.983355
0.983357
0.983358
0.983359
0.983359
0.98336
0.983362
0.983363
0.983364
0.983364
0.983365
0.983367
0.983368
0.983369
0.983369
0.983371
0.983372
0.983373
0.983374
0.983374
0.983376
0.983377
0.983378
0.983379
0.983379
0.983381
0.983382
0.983383
0.983384
0.983384
0.983386
0.983387
0.983388
0.98339
0.98339
0.983391
0.983392
0.983393
0.983395
0.983395
0.983396
0.983397
0.983399
0.9834
0.9834
0.983401
0.983402
0.983404
0.983405
0.983405
0.983406
0.983408
0.983409
0.98341
0.98341
0.983411
0.983413
0.983414
0.983415
0.983415
0.983417
0.983418
0.983419
0.98342
0.98342
0.983422
0.983423
0.983424
0.983426
0.983426
0.983427
0.983428
0.98343
0.983431
0.983431
0.983432
0.983434
0.983435
0.983436
0.983436
0.983437
0.983439
0.98344
0.983441
0.983441
0.983443
0.983444
0.983445
0.983447
0.983447
0.983448
0.983449
0.983451
0.983452
0.983452
0.983453
0.983455
0.983456
0.983457
0.983457
0.983458
0.98346
0.983461
0.983462
0.983462
0.983464
0.983465
0.983466
0.983468
0.983468
0.983469
0.98347
0.983472
0.983473
0.983473
0.983474
0.983476
0.983477
0.983478
0.983478
0.98348
0.983481
0.983482
0.983484
0.983484
0.983485
0.983486
0.983488
0.983489
0.983489
0.98349
0.983492
0.983493
0.983494
0.983494
0.983496
0.983497
0.983498
0.9835
0.9835
0.983501
0.983502
0.983504
0.983505
0.983505
0.983507
0.983508
0.983509
0.983511
0.983511
0.983512
0.983513
0.983515
0.983516
0.983516
0.983517
0.983519
0.98352
0.983521
0.983521
0.983523
0.983524
0.983525
0.983527
0.983527
0.983528
0.98353
0.983531
0.983532
0.983532
0.983534
0.983535
0.983536
0.983538
0.983538
0.983539
0.983541
0.983542
0.983543
0.983543
0.983545
0.983546
0.983547
0.983549
0.983549
0.98355
0.983551
0.983553
0.983554
0.983554
0.983556
0.983557
0.983558
0.98356
0.98356
0.983561
0.983563
0.983564
0.983565
0.983565
0.983567
0.983568
0.983569
0.983571
0.983571
0.983572
0.983574
0.983575
0.983576
0.983576
0.983578
0.983579
0.983581
0.983582
0.983582
0.983583
0.983585
0.983586
0.983588
0.983588
0.983589
0.98359
0.983592
0.983593
0.983593
0.983595
0.983596
0.983597
0.983599
0.983599
0.9836
0.983602
0.983603
0.983604
0.983604
0.983606
0.983607
0.983609
0.98361
0.98361
0.983611
0.983613
0.983614
0.983616
0.983616
0.983617
0.983618
0.98362
0.983621
0.983621
0.983623
0.983624
0.983625
0.983627
0.983627
0.983628
0.98363
0.983631
0.983633
0.983633
0.983634
0.983635
0.983637
0.983638
0.983638
0.98364
0.983641
0.983643
0.983644
0.983644
0.983645
0.983647
0.983648
0.98365
0.98365
0.983651
0.983653
0.983654
0.983655
0.983655
0.983657
0.983658
0.98366
0.983661
0.983661
0.983663
0.983664
0.983665
0.983667
0.983667
0.983668
0.98367
0.983671
0.983673
0.983673
0.983674
0.983676
0.983677
0.983678
0.983678
0.98368
0.983681
0.983683
0.983684
0.983684
0.983686
0.983687
0.983689
0.98369
0.98369
0.983692
0.983693
0.983694
0.983696
0.983696
0.983697
0.983699
0.9837
0.983702
0.983702
0.983703
0.983705
0.983706
0.983708
0.983708
0.983709
0.98371
0.983712
0.983713
0.983713
0.983715
0.983716
0.983718
0.983719
0.983719
0.983721
0.983722
0.983724
0.983725
0.983725
0.983727
0.983728
0.98373
0.983731
0.983731
0.983732
0.983734
0.983735
0.983737
0.983737
0.983738
0.98374
0.983741
0.983743
0.983743
0.983744
0.983746
0.983747
0.983749
0.983749
0.98375
0.983752
0.983753
0.983755
0.983755
0.983756
0.983758
0.983759
0.983761
0.983761
0.983762
0.983764
0.983765
0.983767
0.983767
0.983768
0.98377
0.983771
0.983773
0.983773
0.983774
0.983776
0.983777
0.983779
0.983779
0.98378
0.983782
0.983783
0.983785
0.983785
0.983786
0.983788
0.983789
0.983791
0.983791
0.983792
0.983794
0.983795
0.983797
0.983797
0.983798
0.9838
0.983801
0.983803
0.983803
0.983804
0.983806
0.983807
0.983809
0.983809
0.98381
0.983812
0.983813
0.983815
0.983815
0.983816
0.983818
0.983819
0.983821
0.983821
0.983822
0.983824
0.983825
0.983827
0.983827
0.983828
0.98383
0.983831
0.983833
0.983833
0.983835
0.983836
0.983838
0.983839
0.983839
0.983841
0.983842
0.983844
0.983845
0.983845
0.983847
0.983848
0.98385
0.983851
0.983851
0.983853
0.983854
0.983856
0.983858
0.983858
0.983859
0.983861
0.983862
0.983864
0.983864
0.983865
0.983867
0.983868
0.98387
0.98387
0.983871
0.983873
0.983874
0.983876
0.983876
0.983878
0.983879
0.983881
0.983882
0.983882
0.983884
0.983885
0.983887
0.983888
0.983888
0.98389
0.983892
0.983893
0.983895
0.983895
0.983896
0.983898
0.983899
0.983901
0.983901
0.983902
0.983904
0.983906
0.983907
0.983907
0.983909
0.98391
0.983912
0.983913
0.983913
0.983915
0.983917
0.983918
0.98392
0.98392
0.983921
0.983923
0.983924
0.983926
0.983926
0.983928
0.983929
0.983931
0.983932
0.983932
0.983934
0.983935
0.983937
0.983939
0.983939
0.98394
0.983942
0.983943
0.983945
0.983945
0.983946
0.983948
0.98395
0.983951
0.983951
0.983953
0.983954
0.983956
0.983958
0.983958
0.983959
0.983961
0.983962
0.983964
0.983964
0.983965
0.983967
0.983969
0.98397
0.98397
0.983972
0.983973
0.983975
0.983977
0.983977
0.983978
0.98398
0.983981
0.983983
0.983983
0.983985
0.983986
0.983988
0.983989
0.983989
0.983991
0.983993
0.983994
0.983996
0.983996
0.983997
0.983999
0.984001
0.984002
0.984002
0.984004
0.984005
0.984007
0.984009
0.984009
0.98401
0.984012
0.984014
0.984015
0.984015
0.984017
0.984018
0.98402
0.984022
0.984022
0.984023
0.984025
0.984026
0.984028
0.984028
0.98403
0.984031
0.984033
0.984035
0.984035
0.984036
0.984038
0.984039
0.984041
0.984041
0.984043
0.984044
0.984046
0.984048
0.984048
0.984049
0.984051
0.984052
0.984054
0.984054
0.984056
0.984057
0.984059
0.984061
0.984061
0.984062
0.984064
0.984066
0.984067
0.984067
0.984069
0.98407
0.984072
0.984074
0.984074
0.984075
0.984077
0.984079
0.98408
0.98408
0.984082
0.984084
0.984085
0.984087
0.984087
0.984089
0.98409
0.984092
0.984093
0.984093
0.984095
0.984097
0.984098
0.9841
0.9841
0.984102
0.984103
0.984105
0.984107
0.984107
0.984108
0.98411
0.984112
0.984113
0.984113
0.984115
0.984117
0.984118
0.98412
0.98412
0.984122
0.984123
0.984125
0.984127
0.984127
0.984128
0.98413
0.984132
0.984133
0.984133
0.984135
0.984137
0.984138
0.98414
0.98414
0.984142
0.984143
0.984145
0.984147
0.984147
0.984148
0.98415
0.984152
0.984153
0.984153
0.984155
0.984157
0.984158
0.98416
0.98416
0.984162
0.984163
0.984165
0.984167
0.984167
0.984168
0.98417
0.984172
0.984173
0.984173
0.984175
0.984177
0.984179
0.98418
0.98418
0.984182
0.984184
0.984185
0.984187
0.984187
0.984189
0.98419
0.984192
0.984194
0.984194
0.984195
0.984197
0.984199
0.984201
0.984201
0.984202
0.984204
0.984206
0.984207
0.984207
0.984209
0.984211
0.984212
0.984214
0.984214
0.984216
0.984218
0.984219
0.984221
0.984221
0.984223
0.984224
0.984226
0.984228
0.984228
0.984229
0.984231
0.984233
0.984235
0.984235
0.984236
0.984238
0.98424
0.984241
0.984241
0.984243
0.984245
0.984247
0.984248
0.984248
0.98425
0.984252
0.984253
0.984255
0.984255
0.984257
0.984259
0.98426
0.984262
0.984262
0.984264
0.984266
0.984267
0.984269
0.984269
0.984271
0.984272
0.984274
0.984276
0.984276
0.984278
0.984279
0.984281
0.984283
0.984283
0.984285
0.984286
0.984288
0.98429
0.98429
0.984291
0.984293
0.984295
0.984297
0.984297
0.984298
0.9843
0.984302
0.984304
0.984304
0.984305
0.984307
0.984309
0.984311
0.984311
0.984312
0.984314
0.984316
0.984318
0.984318
0.984319
0.984321
0.984323
0.984325
0.984325
0.984326
0.984328
0.98433
0.984332
0.984332
0.984333
0.984335
0.984337
0.984339
0.984339
0.98434
0.984342
0.984344
0.984346
0.984346
0.984347
0.984349
0.984351
0.984353
0.984353
0.984354
0.984356
0.984358
0.98436
0.98436
0.984361
0.984363
0.984365
0.984367
0.984367
0.984369
0.98437
0.984372
0.984374
0.984374
0.984376
0.984377
0.984379
0.984381
0.984381
0.984383
0.984384
0.984386
0.984388
0.984388
0.98439
0.984392
0.984393
0.984395
0.984395
0.984397
0.984399
0.9844
0.984402
0.984402
0.984404
0.984406
0.984408
0.984409
0.984409
0.984411
0.984413
0.984415
0.984417
0.984417
0.984418
0.98442
0.984422
0.984424
0.984424
0.984425
0.984427
0.984429
0.984431
0.984431
0.984433
0.984434
0.984436
0.984438
0.984438
0.98444
0.984442
0.984443
0.984445
0.984445
0.984447
0.984449
0.984451
0.984452
0.984452
0.984454
0.984456
0.984458
0.98446
0.98446
0.984461
0.984463
0.984465
0.984467
0.984467
0.984469
0.98447
0.984472
0.984474
0.984474
0.984476
0.984478
0.984479
0.984481
0.984481
0.984483
0.984485
0.984487
0.984489
0.984489
0.98449
0.984492
0.984494
0.984496
0.984496
0.984498
0.984499
0.984501
0.984503
0.984503
0.984505
0.984507
0.984509
0.98451
0.98451
0.984512
0.984514
0.984516
0.984518
0.984518
0.984519
0.984521
0.984523
0.984525
0.984525
0.984527
0.984529
0.98453
0.984532
0.984532
0.984534
0.984536
0.984538
0.98454
0.98454
0.984541
0.984543
0.984545
0.984547
0.984547
0.984549
0.984551
0.984552
0.984554
0.984554
0.984556
0.984558
0.98456
0.984562
0.984562
0.984564
0.984565
0.984567
0.984569
0.984569
0.984571
0.984573
0.984575
0.984576
0.984576
0.984578
0.98458
0.984582
0.984584
0.984584
0.984586
0.984588
0.984589
0.984591
0.984591
0.984593
0.984595
0.984597
0.984599
0.984599
0.984601
0.984602
0.984604
0.984606
0.984606
0.984608
0.98461
0.984612
0.984614
0.984614
0.984615
0.984617
0.984619
0.984621
0.984621
0.984623
0.984625
0.984627
0.984628
0.984628
0.98463
0.984632
0.984634
0.984636
0.984636
0.984638
0.98464
0.984642
0.984643
0.984643
0.984645
0.984647
0.984649
0.984651
0.984651
0.984653
0.984655
0.984657
0.984658
0.984658
0.98466
0.984662
0.984664
0.984666
0.984666
0.984668
0.98467
0.984672
0.984674
0.984674
0.984675
0.984677
0.984679
0.984681
0.984681
0.984683
0.984685
0.984687
0.984689
0.984689
0.984691
0.984692
0.984694
0.984696
0.984696
0.984698
0.9847
0.984702
0.984704
0.984704
0.984706
0.984708
0.984709
0.984711
0.984711
0.984713
0.984715
0.984717
0.984719
0.984719
0.984721
0.984723
0.984725
0.984727
0.984727
0.984728
0.98473
0.984732
0.984734
0.984734
0.984736
0.984738
0.98474
0.984742
0.984742
0.984744
0.984746
0.984748
0.984749
0.984749
0.984751
0.984753
0.984755
0.984757
0.984757
0.984759
0.984761
0.984763
0.984765
0.984765
0.984767
0.984769
0.984771
0.984772
0.984772
0.984774
0.984776
0.984778
0.98478
0.98478
0.984782
0.984784
0.984786
0.984788
0.984788
0.98479
0.984792
0.984794
0.984796
0.984796
0.984797
0.984799
0.984801
0.984803
0.984803
0.984805
0.984807
0.984809
0.984811
0.984811
0.984813
0.984815
0.984817
0.984819
0.984819
0.984821
0.984823
0.984825
0.984827
0.984827
0.984828
0.98483
0.984832
0.984834
0.984834
0.984836
0.984838
0.98484
0.984842
0.984842
0.984844
0.984846
0.984848
0.98485
0.98485
0.984852
0.984854
0.984856
0.984858
0.984858
0.98486
0.984862
0.984863
0.984865
0.984865
0.984867
0.984869
0.984871
0.984873
0.984873
0.984875
0.984877
0.984879
0.984881
0.984881
0.984883
0.984885
0.984887
0.984889
0.984889
0.984891
0.984893
0.984895
0.984897
0.984897
0.984899
0.984901
0.984903
0.984905
0.984905
0.984907
0.984909
0.984911
0.984913
0.984913
0.984914
0.984916
0.984918
0.98492
0.98492
0.984922
0.984924
0.984926
0.984928
0.984928
0.98493
0.984932
0.984934
0.984936
0.984936
0.984938
0.98494
0.984942
0.984944
0.984944
0.984946
0.984948
0.98495
0.984952
0.984952
0.984954
0.984956
0.984958
0.98496
0.98496
0.984962
0.984964
0.984966
0.984968
0.984968
0.98497
0.984972
0.984974
0.984976
0.984976
0.984978
0.98498
0.984982
0.984984
0.984984
0.984986
0.984988
0.98499
0.984992
0.984992
0.984994
0.984996
0.984998
0.985
0.985
0.985002
0.985004
0.985006
0.985008
0.985008
0.98501
0.985012
0.985014
0.985016
0.985016
0.985018
0.98502
0.985022
0.985024
0.985024
0.985026
0.985028
0.98503
0.985032
0.985032
0.985034
0.985036
0.985038
0.98504
0.98504
0.985042
0.985044
0.985046
0.985048
0.985048
0.98505
0.985052
0.985054
0.985056
0.985056
0.985058
0.98506
0.985062
0.985064
0.985064
0.985066
0.985068
0.98507
0.985072
0.985072
0.985074
0.985076
0.985078
0.98508
0.98508
0.985082
0.985084
0.985086
0.985088
0.985088
0.98509
0.985092
0.985094
0.985097
0.985097
0.985099
0.985101
0.985103
0.985105
0.985105
0.985107
0.985109
0.985111
0.985113
0.985113
0.985115
0.985117
0.985119
0.985121
0.985121
0.985123
0.985125
0.985127
0.985129
0.985129
0.985131
0.985133
0.985135
0.985137
0.985137
0.985139
0.985141
0.985143
0.985145
0.985145
0.985147
0.98515
0.985152
0.985154
0.985154
0.985156
0.985158
0.98516
0.985162
0.985162
0.985164
0.985166
0.985168
0.98517
0.98517
0.985172
0.985174
0.985176
0.985178
0.985178
0.98518
0.985182
0.985184
0.985186
0.985186
0.985189
0.985191
0.985193
0.985195
0.985195
0.985197
0.985199
0.985201
0.985203
0.985203
0.985205
0.985207
0.985209
0.985211
0.985211
0.985213
0.985215
0.985217
0.985219
0.985219
0.985222
0.985224
0.985226
0.985228
0.985228
0.98523
0.985232
0.985234
0.985236
0.985236
0.985238
0.98524
0.985242
0.985244
0.985244
0.985246
0.985249
0.985251
0.985253
0.985253
0.985255
0.985257
0.985259
0.985261
0.985261
0.985263
0.985265
0.985267
0.985269
0.985269
0.985271
0.985274
0.985276
0.985278
0.985278
0.98528
0.985282
0.985284
0.985286
0.985286
0.985288
0.98529
0.985292
0.985294
0.985294
0.985297
0.985299
0.985301
0.985303
0.985303
0.985305
0.985307
0.985309
0.985311
0.985311
0.985313
0.985315
0.985317
0.98532
0.98532
0.985322
0.985324
0.985326
0.985328
0.985328
0.98533
0.985332
0.985334
0.985336
0.985336
0.985339
0.985341
0.985343
0.985345
0.985345
0.985347
0.985349
0.985351
0.985353
0.985353
0.985355
0.985357
0.98536
0.985362
0.985362
0.985364
0.985366
0.985368
0.98537
0.98537
0.985372
0.985374
0.985377
0.985379
0.985379
0.985381
0.985383
0.985385
0.985387
0.985387
0.985389
0.985391
0.985393
0.985396
0.985396
0.985398
0.9854
0.985402
0.985404
0.985404
0.985406
0.985408
0.98541
0.985413
0.985413
0.985415
0.985417
0.985419
0.985421
0.985421
0.985423
0.985425
0.985428
0.98543
0.98543
0.985432
0.985434
0.985436
0.985438
0.985438
0.98544
0.985442
0.985445
0.985447
0.985447