<?xml version="1.0"?>
<VTKFile type="UnstructuredGrid" version="0.1" byte_order="LittleEndian">
<UnstructuredGrid>
<Piece NumberOfPoints="5000" NumberOfCells="4000">
<PointData Scalars="Reaction 0">
<DataArray type="Float32" Name="Reaction 0" format="ascii">
0.681626
0.681626
0.681626
0.681627
0.681627
0.681627
0.681627
0.681627
0.681627
0.681627
0.681627
0.681627
0.681627
0.681627
0.681627
0.681627
0.681628
0.681628
0.681628
0.681628
0.681628
0.681629
0.681629
0.681629
0.681629
0.681629
0.68163
0.68163
0.68163
0.681631
0.681631
0.681631
0.681631
0.681632
0.681632
0.681632
0.681632
0.681633
0.681633
0.681634
0.681634
0.681634
0.681635
0.681635
0.681636
0.681636
0.681636
0.681637
0.681637
0.681638
0.681638
0.681639
0.681639
0.68164
0.68164
0.68164
0.681641
0.681642
0.681642
0.681643
0.681643
0.681644
0.681644
0.681645
0.681646
0.681646
0.681647
0.681647
0.681648
0.681649
0.681649
0.68165
0.681651
0.681651
0.681652
0.681652
0.681653
0.681654
0.681655
0.681656
0.681656
0.681657
0.681658
0.681659
0.68166
0.68166
0.681661
0.681662
0.681663
0.681664
0.681664
0.681665
0.681666
0.681667
0.681668
0.681668
0.681669
0.68167
0.681671
0.681672
0.681672
0.681674
0.681675
0.681676
0.681677
0.681677
0.681678
0.68168
0.681681
0.681682
0.681682
0.681683
0.681685
0.681686
0.681687
0.681687
0.681689
0.68169
0.681691
0.681693
0.681693
0.681694
0.681696
0.681697
0.681698
0.681698
0.6817
0.681701
0.681703
0.681704
0.681704
0.681706
0.681707
0.681709
0.68171
0.68171
0.681712
0.681713
0.681715
0.681717
0.681717
0.681718
0.68172
0.681722
0.681723
0.681723
0.681725
0.681727
0.681728
0.68173
0.68173
0.681732
0.681734
0.681735
0.681737
0.681737
0.681739
0.681741
0.681742
0.681744
0.681744
0.681746
0.681748
0.68175
0.681752
0.681752
0.681754
0.681756
0.681758
0.681759
0.681759
0.681761
0.681763
0.681765
0.681767
0.681767
0.681769
0.681771
0.681774
0.681776
0.681776
0.681778
0.68178
0.681782
0.681784
0.681784
0.681786
0.681788
0.68179
0.681793
0.681793
0.681795
0.681797
0.681799
0.681801
0.681801
0.681804
0.681806
0.681808
0.681811
0.681811
0.681813
0.681815
0.681818
0.68182
0.68182
0.681822
0.681825
0.681827
0.681829
0.681829
0.681832
0.681834
0.681837
0.681839
0.681839
0.681842
0.681844
0.681847
0.681849
0.681849
0.681852
0.681854
0.681857
0.681859
0.681859
0.681862
0.681865
0.681867
0.68187
0.68187
0.681873
0.681875
0.681878
0.681881
0.681881
0.681883
0.681886
0.681889
0.681892
0.681892
0.681894
0.681897
0.6819
0.681903
0.681903
0.681906
0.681908
0.681911
0.681914
0.681914
0.681917
0.68192
0.681923
0.681926
0.681926
0.681929
0.681932
0.681935
0.681938
0.681938
0.681941
0.681944
0.681947
0.68195
0.68195
0.681953
0.681956
0.681959
0.681962
0.681962
0.681965
0.681968
0.681971
0.681975
0.681975
0.681978
0.681981
0.681984
0.681987
0.681987
0.681991
0.681994
0.681997
0.682
0.682
0.682004
0.682007
0.68201
0.682014
0.682014
0.682017
0.68202
0.682024
0.682027
0.682027
0.68203
0.682034
0.682037
0.682041
0.682041
0.682044
0.682048
0.682051
0.682055
0.682055
0.682058
0.682062
0.682065
0.682069
0.682069
0.682072
0.682076
0.68208
0.682083
0.682083
0.682087
0.68209
0.682094
0.682098
0.682098
0.682101
0.682105
0.682109
0.682113
0.682113
0.682116
0.68212
0.682124
0.682128
0.682128
0.682132
0.682135
0.682139
0.682143
0.682143
0.682147
0.682151
0.682155
0.682159
0.682159
0.682162
0.682166
0.68217
0.682174
0.682174
0.682178
0.682182
0.682186
0.68219
0.68219
0.682194
0.682198
0.682202
0.682207
0.682207
0.682211
0.682215
0.682219
0.682223
0.682223
0.682227
0.682231
0.682235
0.68224
0.68224
0.682244
0.682248
0.682252
0.682257
0.682257
0.682261
0.682265
0.682269
0.682274
0.682274
0.682278
0.682282
0.682287
0.682291
0.682291
0.682296
0.6823
0.682304
0.682309
0.682309
0.682313
0.682318
0.682322
0.682327
0.682327
0.682331
0.682336
0.68234
0.682345
0.682345
0.682349
0.682354
0.682358
0.682363
0.682363
0.682368
0.682372
0.682377
0.682381
0.682381
0.682386
0.682391
0.682395
0.6824
0.6824
0.682405
0.68241
0.682414
0.682419
0.682419
0.682424
0.682429
0.682434
0.682438
0.682438
0.682443
0.682448
0.682453
0.682458
0.682458
0.682463
0.682468
0.682473
0.682478
0.682478
0.682482
0.682487
0.682492
0.682497
0.682497
0.682502
0.682507
0.682513
0.682518
0.682518
0.682523
0.682528
0.682533
0.682538
0.682538
0.682543
0.682548
0.682553
0.682559
0.682559
0.682564
0.682569
0.682574
0.682579
0.682579
0.682585
0.68259
0.682595
0.6826
0.6826
0.682606
0.682611
0.682616
0.682622
0.682622
0.682627
0.682632
0.682638
0.682643
0.682643
0.682649
0.682654
0.682659
0.682665
0.682665
0.68267
0.682676
0.682681
0.682687
0.682687
0.682692
0.682698
0.682704
0.682709
0.682709
0.682715
0.68272
0.682726
0.682732
0.682732
0.682737
0.682743
0.682749
0.682754
0.682754
0.68276
0.682766
0.682771
0.682777
0.682777
0.682783
0.682789
0.682794
0.6828
0.6828
0.682806
0.682812
0.682818
0.682824
0.682824
0.682829
0.682835
0.682841
0.682847
0.682847
0.682853
0.682859
0.682865
0.682871
0.682871
0.682877
0.682883
0.682889
0.682895
0.682895
0.682901
0.682907
0.682913
0.682919
0.682919
0.682925
0.682932
0.682938
0.682944
0.682944
0.68295
0.682956
0.682962
0.682969
0.682969
0.682975
0.682981
0.682987
0.682994
0.682994
0.683
0.683006
0.683012
0.683019
0.683019
0.683025
0.683031
0.683038
0.683044
0.683044
0.683051
0.683057
0.683063
0.68307
0.68307
0.683076
0.683083
0.683089
0.683096
0.683096
0.683102
0.683109
0.683115
0.683122
0.683122
0.683128
0.683135
0.683142
0.683148
0.683148
0.683155
0.683161
0.683168
0.683175
0.683175
0.683181
0.683188
0.683195
0.683202
0.683202
0.683208
0.683215
0.683222
0.683229
0.683229
0.683235
0.683242
0.683249
0.683256
0.683256
0.683263
0.68327
0.683276
0.683283
0.683283
0.68329
0.683297
0.683304
0.683311
0.683311
0.683318
0.683325
0.683332
0.683339
0.683339
0.683346
0.683353
0.68336
0.683367
0.683367
0.683374
0.683381
0.683388
0.683396
0.683396
0.683403
0.68341
0.683417
0.683424
0.683424
0.683431
0.683439
0.683446
0.683453
0.683453
0.68346
0.683468
0.683475
0.683482
0.683482
0.68349
0.683497
0.683504
0.683512
0.683512
0.683519
0.683526
0.683534
0.683541
0.683541
0.683549
0.683556
0.683563
0.683571
0.683571
0.683578
0.683586
0.683593
0.683601
0.683601
0.683608
0.683616
0.683624
0.683631
0.683631
0.683639
0.683646
0.683654
0.683662
0.683662
0.683669
0.683677
0.683685
0.683692
0.683692
0.6837
0.683708
0.683716
0.683723
0.683723
0.683731
0.683739
0.683747
0.683754
0.683754
0.683762
0.68377
0.683778
0.683786
0.683786
0.683794
0.683802
0.68381
0.683817
0.683817
0.683825
0.683833
0.683841
0.683849
0.683849
0.683857
0.683865
0.683873
0.683881
0.683881
0.683889
0.683898
0.683906
0.683914
0.683914
0.683922
0.68393
0.683938
0.683946
0.683946
0.683954
0.683963
0.683971
0.683979
0.683979
0.683987
0.683996
0.684004
0.684012
0.684012
0.68402
0.684029
0.684037
0.684045
0.684045
0.684054
0.684062
0.68407
0.684079
0.684079
0.684087
0.684096
0.684104
0.684112
0.684112
0.684121
0.684129
0.684138
0.684146
0.684146
0.684155
0.684163
0.684172
0.684181
0.684181
0.684189
0.684198
0.684206
0.684215
0.684215
0.684224
0.684232
0.684241
0.68425
0.68425
0.684258
0.684267
0.684276
0.684284
0.684284
0.684293
0.684302
0.684311
0.684319
0.684319
0.684328
0.684337
0.684346
0.684355
0.684355
0.684364
0.684373
0.684381
0.68439
0.68439
0.684399
0.684408
0.684417
0.684426
0.684426
0.684435
0.684444
0.684453
0.684462
0.684462
0.684471
0.68448
0.684489
0.684498
0.684498
0.684507
0.684516
0.684526
0.684535
0.684535
0.684544
0.684553
0.684562
0.684571
0.684571
0.684581
0.68459
0.684599
0.684608
0.684608
0.684618
0.684627
0.684636
0.684645
0.684645
0.684655
0.684664
0.684673
0.684683
0.684683
0.684692
0.684702
0.684711
0.68472
0.68472
0.68473
0.684739
0.684749
0.684758
0.684758
0.684768
0.684777
0.684787
0.684796
0.684796
0.684806
0.684815
0.684825
0.684835
0.684835
0.684844
0.684854
0.684863
0.684873
0.684873
0.684883
0.684892
0.684902
0.684912
0.684912
0.684922
0.684931
0.684941
0.684951
0.684951
0.684961
0.68497
0.68498
0.68499
0.68499
0.685
0.68501
0.68502
0.685029
0.685029
0.685039
0.685049
0.685059
0.685069
0.685069
0.685079
0.685089
0.685099
0.685109
0.685109
0.685119
0.685129
0.685139
0.685149
0.685149
0.685159
0.685169
0.685179
0.68519
0.68519
0.6852
0.68521
0.68522
0.68523
0.68523
0.68524
0.68525
0.685261
0.685271
0.685271
0.685281
0.685291
0.685302
0.685312
0.685312
0.685322
0.685333
0.685343
0.685353
0.685353
0.685364
0.685374
0.685384
0.685395
0.685395
0.685405
0.685416
0.685426
0.685436
0.685436
0.685447
0.685457
0.685468
0.685478
0.685478
0.685489
0.685499
0.68551
0.685521
0.685521
0.685531
0.685542
0.685552
0.685563
0.685563
0.685574
0.685584
0.685595
0.685606
0.685606
0.685616
0.685627
0.685638
0.685649
0.685649
0.685659
0.68567
0.685681
0.685692
0.685692
0.685702
0.685713
0.685724
0.685735
0.685735
0.685746
0.685757
0.685768
0.685779
0.685779
0.685789
0.6858
0.685811
0.685822
0.685822
0.685833
0.685844
0.685855
0.685866
0.685866
0.685877
0.685888
0.6859
0.685911
0.685911
0.685922
0.685933
0.685944
0.685955
0.685955
0.685966
0.685977
0.685989
0.686
0.686
0.686011
0.686022
0.686033
0.686045
0.686045
0.686056
0.686067
0.686079
0.68609
0.68609
0.686101
0.686113
0.686124
0.686135
0.686135
0.686147
0.686158
0.68617
0.686181
0.686181
0.686192
0.686204
0.686215
0.686227
0.686227
0.686238
0.68625
0.686261
0.686273
0.686273
0.686284
0.686296
0.686308
0.686319
0.686319
0.686331
0.686342
0.686354
0.686366
0.686366
0.686377
0.686389
0.686401
0.686413
0.686413
0.686424
0.686436
0.686448
0.68646
0.68646
0.686471
0.686483
0.686495
0.686507
0.686507
0.686519
0.68653
0.686542
0.686554
0.686554
0.686566
0.686578
0.68659
0.686602
0.686602
0.686614
0.686626
0.686638
0.68665
0.68665
0.686662
0.686674
0.686686
0.686698
0.686698
0.68671
0.686722
0.686734
0.686746
0.686746
0.686758
0.686771
0.686783
0.686795
0.686795
0.686807
0.686819
0.686832
0.686844
0.686844
0.686856
0.686868
0.686881
0.686893
0.686893
0.686905
0.686917
0.68693
0.686942
0.686942
0.686954
0.686967
0.686979
0.686992
0.686992
0.687004
0.687016
0.687029
0.687041
0.687041
0.687054
0.687066
0.687079
0.687091
0.687091
0.687104
0.687116
0.687129
0.687142
0.687142
0.687154
0.687167
0.687179
0.687192
0.687192
0.687205
0.687217
0.68723
0.687243
0.687243
0.687255
0.687268
0.687281
0.687294
0.687294
0.687306
0.687319
0.687332
0.687345
0.687345
0.687358
0.68737
0.687383
0.687396
0.687396
0.687409
0.687422
0.687435
0.687448
0.687448
0.687461
0.687474
0.687486
0.687499
0.687499
0.687512
0.687525
0.687538
0.687551
0.687551
0.687565
0.687578
0.687591
0.687604
0.687604
0.687617
0.68763
0.687643
0.687656
0.687656
0.687669
0.687683
0.687696
0.687709
0.687709
0.687722
0.687735
0.687749
0.687762
0.687762
0.687775
0.687788
0.687802
0.687815
0.687815
0.687828
0.687842
0.687855
0.687869
0.687869
0.687882
0.687895
0.687909
0.687922
0.687922
0.687936
0.687949
0.687963
0.687976
0.687976
0.68799
0.688003
0.688017
0.68803
0.68803
0.688044
0.688057
0.688071
0.688084
0.688084
0.688098
0.688112
0.688125
0.688139
0.688139
0.688153
0.688166
0.68818
0.688194
0.688194
0.688208
0.688221
0.688235
0.688249
0.688249
0.688263
0.688276
0.68829
0.688304
0.688304
0.688318
0.688332
0.688346
0.68836
0.68836
0.688373
0.688387
0.688401
0.688415
0.688415
0.688429
0.688443
0.688457
0.688471
0.688471
0.688485
0.688499
0.688513
0.688527
0.688527
0.688541
0.688555
0.68857
0.688584
0.688584
0.688598
0.688612
0.688626
0.68864
0.68864
0.688654
0.688669
0.688683
0.688697
0.688697
0.688711
0.688726
0.68874
0.688754
0.688754
0.688768
0.688783
0.688797
0.688811
0.688811
0.688826
0.68884
0.688855
0.688869
0.688869
0.688883
0.688898
0.688912
0.688927
0.688927
0.688941
0.688956
0.68897
0.688985
0.688985
0.688999
0.689014
0.689028
0.689043
0.689043
0.689058
0.689072
0.689087
0.689101
0.689101
0.689116
0.689131
0.689145
0.68916
0.68916
0.689175
0.689189
0.689204
0.689219
0.689219
0.689234
0.689249
0.689263
0.689278
0.689278
0.689293
0.689308
0.689323
0.689337
0.689337
0.689352
0.689367
0.689382
0.689397
0.689397
0.689412
0.689427
0.689442
0.689457
0.689457
0.689472
0.689487
0.689502
0.689517
0.689517
0.689532
0.689547
0.689562
0.689577
0.689577
0.689592
0.689607
0.689622
0.689638
0.689638
0.689653
0.689668
0.689683
0.689698
0.689698
0.689714
0.689729
0.689744
0.689759
0.689759
0.689775
0.68979
0.689805
0.68982
0.68982
0.689836
0.689851
0.689867
0.689882
0.689882
0.689897
0.689913
0.689928
0.689944
0.689944
0.689959
0.689974
0.68999
0.690005
0.690005
0.690021
0.690036
0.690052
0.690067
0.690067
0.690083
0.690099
0.690114
0.69013
0.69013
0.690145
0.690161
0.690177
0.690192
0.690192
0.690208
0.690224
0.690239
0.690255
0.690255
0.690271
0.690287
0.690302
0.690318
0.690318
0.690334
0.69035
0.690366
0.690381
0.690381
0.690397
0.690413
0.690429
0.690445
0.690445
0.690461
0.690477
0.690493
0.690509
0.690509
0.690524
0.69054
0.690556
0.690572
0.690572
0.690588
0.690604
0.690621
0.690637
0.690637
0.690653
0.690669
0.690685
0.690701
0.690701
0.690717
0.690733
0.690749
0.690766
0.690766
0.690782
0.690798
0.690814
0.69083
0.69083
0.690847
0.690863
0.690879
0.690895
0.690895
0.690912
0.690928
0.690944
0.690961
0.690961
0.690977
0.690993
0.69101
0.691026
0.691026
0.691043
0.691059
0.691075
0.691092
0.691092
0.691108
0.691125
0.691141
0.691158
0.691158
0.691174
0.691191
0.691208
0.691224
0.691224
0.691241
0.691257
0.691274
0.691291
0.691291
0.691307
0.691324
0.69134
0.691357
0.691357
0.691374
0.691391
0.691407
0.691424
0.691424
0.691441
0.691458
0.691474
0.691491
0.691491
0.691508
0.691525
0.691542
0.691558
0.691558
0.691575
0.691592
0.691609
0.691626
0.691626
0.691643
0.69166
0.691677
0.691694
0.691694
0.691711
0.691728
0.691745
0.691762
0.691762
0.691779
0.691796
0.691813
0.69183
0.69183
0.691847
0.691864
0.691881
0.691899
0.691899
0.691916
0.691933
0.69195
0.691967
0.691967
0.691984
0.692002
0.692019
0.692036
0.692036
0.692053
0.692071
0.692088
0.692105
0.692105
0.692123
0.69214
0.692157
0.692175
0.692175
0.692192
0.692209
0.692227
0.692244
0.692244
0.692262
0.692279
0.692297
0.692314
0.692314
0.692332
0.692349
0.692367
0.692384
0.692384
0.692402
0.692419
0.692437
0.692455
0.692455
0.692472
0.69249
0.692507
0.692525
0.692525
0.692543
0.69256
0.692578
0.692596
0.692596
0.692613
0.692631
0.692649
0.692667
0.692667
0.692685
0.692702
0.69272
0.692738
0.692738
0.692756
0.692774
0.692791
0.692809
0.692809
0.692827
0.692845
0.692863
0.692881
0.692881
0.692899
0.692917
0.692935
0.692953
0.692953
0.692971
0.692989
0.693007
0.693025
0.693025
0.693043
0.693061
0.693079
0.693097
0.693097
0.693115
0.693134
0.693152
0.69317
0.69317
0.693188
0.693206
0.693224
0.693243
0.693243
0.693261
0.693279
0.693297
0.693316
0.693316
0.693334
0.693352
0.693371
0.693389
0.693389
0.693407
0.693426
0.693444
0.693462
0.693462
0.693481
0.693499
0.693518
0.693536
0.693536
0.693555
0.693573
0.693592
0.69361
0.69361
0.693629
0.693647
0.693666
0.693684
0.693684
0.693703
0.693721
0.69374
0.693759
0.693759
0.693777
0.693796
0.693814
0.693833
0.693833
0.693852
0.693871
0.693889
0.693908
0.693908
0.693927
0.693945
0.693964
0.693983
0.693983
0.694002
0.694021
0.694039
0.694058
0.694058
0.694077
0.694096
0.694115
0.694134
0.694134
0.694153
0.694172
0.694191
0.69421
0.69421
0.694229
0.694248
0.694267
0.694286
0.694286
0.694305
0.694324
0.694343
0.694362
0.694362
0.694381
0.6944
0.694419
0.694438
0.694438
0.694457
0.694476
0.694496
0.694515
0.694515
0.694534
0.694553
0.694572
0.694592
0.694592
0.694611
0.69463
0.694649
0.694669
0.694669
0.694688
0.694707
0.694727
0.694746
0.694746
0.694765
0.694785
0.694804
0.694824
0.694824
0.694843
0.694862
0.694882
0.694901
0.694901
0.694921
0.69494
0.69496
0.694979
0.694979
0.694999
0.695019
0.695038
0.695058
0.695058
0.695077
0.695097
0.695116
0.695136
0.695136
0.695156
0.695175
0.695195
0.695215
0.695215
0.695234
0.695254
0.695274
0.695294
0.695294
0.695313
0.695333
0.695353
0.695373
0.695373
0.695393
0.695412
0.695432
0.695452
0.695452
0.695472
0.695492
0.695512
0.695532
0.695532
0.695552
0.695572
0.695592
0.695612
0.695612
0.695632
0.695652
0.695672
0.695692
0.695692
0.695712
0.695732
0.695752
0.695772
0.695772
0.695792
0.695812
0.695832
0.695852
0.695852
0.695873
0.695893
0.695913
0.695933
0.695933
0.695953
0.695974
0.695994
0.696014
0.696014
0.696034
0.696055
0.696075
0.696095
0.696095
0.696116
0.696136
0.696156
0.696177
0.696177
0.696197
0.696217
0.696238
0.696258
0.696258
0.696279
0.696299
0.69632
0.69634
0.69634
0.696361
0.696381
0.696402
0.696422
0.696422
0.696443
0.696463
0.696484
0.696504
0.696504
0.696525
0.696546
0.696566
0.696587
0.696587
0.696608
0.696628
0.696649
0.69667
0.69667
0.69669
0.696711
0.696732
0.696753
0.696753
0.696773
0.696794
0.696815
0.696836
0.696836
0.696857
0.696878
0.696898
0.696919
0.696919
0.69694
0.696961
0.696982
0.697003
0.697003
0.697024
0.697045
0.697066
0.697087
0.697087
0.697108
0.697129
0.69715
0.697171
0.697171
0.697192
0.697213
0.697234
0.697255
0.697255
0.697276
0.697298
0.697319
0.69734
0.69734
0.697361
0.697382
0.697403
0.697425
0.697425
0.697446
0.697467
0.697488
0.69751
0.69751
0.697531
0.697552
0.697574
0.697595
0.697595
0.697616
0.697638
0.697659
0.69768
0.69768
0.697702
0.697723
0.697745
0.697766
0.697766
0.697787
0.697809
0.69783
0.697852
0.697852
0.697873
0.697895
0.697917
0.697938
0.697938
0.69796
0.697981
0.698003
0.698024
0.698024
0.698046
0.698068
0.698089
0.698111
0.698111
0.698133
0.698154
0.698176
0.698198
0.698198
0.69822
0.698241
0.698263
0.698285
0.698285
0.698307
0.698328
0.69835
0.698372
0.698372
0.698394
0.698416
0.698438
0.69846
0.69846
0.698482
0.698503
0.698525
0.698547
0.698547
0.698569
0.698591
0.698613
0.698635
0.698635
0.698657
0.698679
0.698701
0.698723
0.698723
0.698746
0.698768
0.69879
0.698812
0.698812
0.698834
0.698856
0.698878
0.6989
0.6989
0.698923
0.698945
0.698967
0.698989
0.698989
0.699012
0.699034
0.699056
0.699078
0.699078
0.699101
0.699123
0.699145
0.699168
0.699168
0.69919
0.699212
0.699235
0.699257
0.699257
0.69928
0.699302
0.699324
0.699347
0.699347
0.699369
0.699392
0.699414
0.699437
0.699437
0.699459
0.699482
0.699504
0.699527
0.699527
0.69955
0.699572
0.699595
0.699617
0.699617
0.69964
0.699663
0.699685
0.699708
0.699708
0.699731
0.699753
0.699776
0.699799
0.699799
0.699822
0.699844
0.699867
0.69989
0.69989
0.699913
0.699936
0.699958
0.699981
0.699981
0.700004
0.700027
0.70005
0.700073
0.700073
0.700096
0.700119
0.700142
0.700165
0.700165
0.700188
0.700211
0.700234
0.700257
0.700257
0.70028
0.700303
0.700326
0.700349
0.700349
0.700372
0.700395
0.700418
0.700441
0.700441
0.700464
0.700487
0.700511
0.700534
0.700534
0.700557
0.70058
0.700603
0.700627
0.700627
0.70065
0.700673
0.700697
0.70072
0.70072
0.700743
0.700766
0.70079
0.700813
0.700813
0.700836
0.70086
0.700883
0.700907
0.700907
0.70093
0.700954
0.700977
0.701
0.701
0.701024
0.701047
0.701071
0.701094
0.701094
0.701118
0.701142
0.701165
0.701189
0.701189
0.701212
0.701236
0.701259
0.701283
0.701283
0.701307
0.70133
0.701354
0.701378
0.701378
0.701401
0.701425
0.701449
0.701473
0.701473
0.701496
0.70152
0.701544
0.701568
0.701568
0.701592
0.701615
0.701639
0.701663
0.701663
0.701687
0.701711
0.701735
0.701759
0.701759
0.701783
0.701807
0.70183
0.701854
0.701854
0.701878
0.701902
0.701926
0.70195
0.70195
0.701975
0.701999
0.702023
0.702047
0.702047
0.702071
0.702095
0.702119
0.702143
0.702143
0.702167
0.702191
0.702216
0.70224
0.70224
0.702264
0.702288
0.702312
0.702337
0.702337
0.702361
0.702385
0.70241
0.702434
0.702434
0.702458
0.702483
0.702507
0.702531
0.702531
0.702556
0.70258
0.702604
0.702629
0.702629
0.702653
0.702678
0.702702
0.702727
0.702727
0.702751
0.702776
0.7028
0.702825
0.702825
0.702849
0.702874
0.702898
0.702923
0.702923
0.702947
0.702972
0.702997
0.703021
0.703021
0.703046
0.703071
0.703095
0.70312
0.70312
0.703145
0.703169
0.703194
0.703219
0.703219
0.703244
0.703268
0.703293
0.703318
0.703318
0.703343
0.703368
0.703393
0.703417
0.703417
0.703442
0.703467
0.703492
0.703517
0.703517
0.703542
0.703567
0.703592
0.703617
0.703617
0.703642
0.703667
0.703692
0.703717
0.703717
0.703742
0.703767
0.703792
0.703817
0.703817
0.703842
0.703867
0.703892
0.703918
0.703918
0.703943
0.703968
0.703993
0.704018
0.704018
0.704043
0.704069
0.704094
0.704119
0.704119
0.704144
0.70417
0.704195
0.70422
0.70422
0.704246
0.704271
0.704296
0.704322
0.704322
0.704347
0.704372
0.704398
0.704423
0.704423
0.704449
0.704474
0.7045
0.704525
0.704525
0.704551
0.704576
0.704602
0.704627
0.704627
0.704653
0.704678
0.704704
0.704729
0.704729
0.704755
0.704781
0.704806
0.704832
0.704832
0.704857
0.704883
0.704909
0.704934
0.704934
0.70496
0.704986
0.705012
0.705037
0.705037
0.705063
0.705089
0.705115
0.705141
0.705141
0.705166
0.705192
0.705218
0.705244
0.705244
0.70527
0.705296
0.705322
0.705347
0.705347
0.705373
0.705399
0.705425
0.705451
0.705451
0.705477
0.705503
0.705529
0.705555
0.705555
0.705581
0.705607
0.705633
0.70566
0.70566
0.705686
0.705712
0.705738
0.705764
0.705764
0.70579
0.705816
0.705843
0.705869
0.705869
0.705895
0.705921
0.705947
0.705974
0.705974
0.706
0.706026
0.706052
0.706079
0.706079
0.706105
0.706131
0.706158
0.706184
0.706184
0.70621
0.706237
0.706263
0.70629
0.70629
0.706316
0.706343
0.706369
0.706395
0.706395
0.706422
0.706448
0.706475
0.706502
0.706502
0.706528
0.706555
0.706581
0.706608
0.706608
0.706634
0.706661
0.706688
0.706714
0.706714
0.706741
0.706768
0.706794
0.706821
0.706821
0.706848
0.706874
0.706901
0.706928
0.706928
0.706955
0.706981
0.707008
0.707035
0.707035
0.707062
0.707089
0.707115
0.707142
0.707142
0.707169
0.707196
0.707223
0.70725
0.70725
0.707277
0.707304
0.707331
0.707358
0.707358
0.707385
0.707412
0.707439
0.707466
0.707466
0.707493
0.70752
0.707547
0.707574
0.707574
0.707601
0.707628
0.707655
0.707682
0.707682
0.707709
0.707737
0.707764
0.707791
0.707791
0.707818
0.707845
0.707873
0.7079
0.7079
0.707927
0.707954
0.707982
0.708009
0.708009
0.708036
0.708064
0.708091
0.708118
0.708118
0.708146
0.708173
0.7082
0.708228
0.708228
0.708255
0.708283
0.70831
0.708338
0.708338
0.708365
0.708393
0.70842
0.708448
0.708448
0.708475
0.708503
0.70853
0.708558
0.708558
0.708585
0.708613
0.708641
0.708668
0.708668
0.708696
0.708724
0.708751
0.708779
0.708779
0.708807
0.708834
0.708862
0.70889
0.70889
0.708918
0.708945
0.708973
0.709001
0.709001
0.709029
0.709057
0.709084
0.709112
0.709112
0.70914
0.709168
0.709196
0.709224
0.709224
0.709252
0.70928
0.709308
0.709336
0.709336
0.709363
0.709391
0.709419
0.709447
0.709447
0.709476
0.709504
0.709532
0.70956
0.70956
0.709588
0.709616
0.709644
0.709672
0.709672
0.7097
0.709728
0.709757
0.709785
0.709785
0.709813
0.709841
0.709869
0.709898
0.709898
0.709926
0.709954
0.709982
0.710011
0.710011
0.710039
0.710067
0.710096
0.710124
0.710124
0.710152
0.710181
0.710209
0.710237
0.710237
0.710266
0.710294
0.710323
0.710351
0.710351
0.71038
0.710408
0.710437
0.710465
0.710465
0.710494
0.710522
0.710551
0.710579
0.710579
0.710608
0.710636
0.710665
0.710694
0.710694
0.710722
0.710751
0.71078
0.710808
0.710808
0.710837
0.710866
0.710894
0.710923
0.710923
0.710952
0.710981
0.711009
0.711038
0.711038
0.711067
0.711096
0.711125
0.711153
0.711153
0.711182
0.711211
0.71124
0.711269
0.711269
0.711298
0.711327
0.711356
0.711385
0.711385
0.711414
0.711443
0.711472
0.711501
0.711501
0.71153
0.711559
0.711588
0.711617
0.711617
0.711646
0.711675
0.711704
0.711733
0.711733
0.711762
0.711791
0.71182
0.71185
0.71185
0.711879
0.711908
0.711937
0.711966
0.711966
0.711996
0.712025
0.712054
0.712083
0.712083
0.712113
0.712142
0.712171
0.712201
0.712201
0.71223
0.712259
0.712289
0.712318
0.712318
0.712347
0.712377
0.712406
0.712436
0.712436
0.712465
0.712495
0.712524
0.712554
0.712554
0.712583
0.712613
0.712642
0.712672
0.712672
0.712701
0.712731
0.71276
0.71279
0.71279
0.71282
0.712849
0.712879
0.712909
0.712909
0.712938
0.712968
0.712998
0.713027
0.713027
0.713057
0.713087
0.713117
0.713146
0.713146
0.713176
0.713206
0.713236
0.713265
0.713265
0.713295
0.713325
0.713355
0.713385
0.713385
0.713415
0.713445
0.713475
0.713505
0.713505
0.713534
0.713564
0.713594
0.713624
0.713624
0.713654
0.713684
0.713714
0.713744
0.713744
0.713774
0.713805
0.713835
0.713865
0.713865
0.713895
0.713925
0.713955
0.713985
0.713985
0.714015
0.714045
0.714076
0.714106
0.714106
0.714136
0.714166
0.714197
0.714227
0.714227
0.714257
0.714287
0.714318
0.714348
0.714348
0.714378
0.714409
0.714439
0.714469
0.714469
0.7145
0.71453
0.71456
0.714591
0.714591
0.714621
0.714652
0.714682
0.714713
0.714713
0.714743
0.714774
0.714804
0.714835
0.714835
0.714865
0.714896
0.714926
0.714957
0.714957
0.714988
0.715018
0.715049
0.715079
0.715079
0.71511
0.715141
0.715171
0.715202
0.715202
0.715233
0.715263
0.715294
0.715325
0.715325
0.715356
0.715386
0.715417
0.715448
0.715448
0.715479
0.71551
0.71554
0.715571
0.715571
0.715602
0.715633
0.715664
0.715695
0.715695
0.715726
0.715757
0.715788
0.715819
0.715819
0.71585
0.715881
0.715912
0.715943
0.715943
0.715974
0.716005
0.716036
0.716067
0.716067
0.716098
0.716129
0.71616
0.716191
0.716191
0.716222
0.716253
0.716285
0.716316
0.716316
0.716347
0.716378
0.716409
0.71644
0.71644
0.716472
0.716503
0.716534
0.716566
0.716566
0.716597
0.716628
0.716659
0.716691
0.716691
0.716722
0.716753
0.716785
0.716816
0.716816
0.716848
0.716879
0.71691
0.716942
0.716942
0.716973
0.717005
0.717036
0.717068
0.717068
0.717099
0.717131
0.717162
0.717194
0.717194
0.717225
0.717257
0.717289
0.71732
0.71732
0.717352
0.717383
0.717415
0.717447
0.717447
0.717478
0.71751
0.717542
0.717574
0.717574
0.717605
0.717637
0.717669
0.717701
0.717701
0.717732
0.717764
0.717796
0.717828
0.717828
0.71786
0.717891
0.717923
0.717955
0.717955
0.717987
0.718019
0.718051
0.718083
0.718083
0.718115
0.718147
0.718179
0.718211
0.718211
0.718243
0.718275
0.718307
0.718339
0.718339
0.718371
0.718403
0.718435
0.718467
0.718467
0.718499
0.718531
0.718563
0.718595
0.718595
0.718627
0.71866
0.718692
0.718724
0.718724
0.718756
0.718788
0.718821
0.718853
0.718853
0.718885
0.718917
0.71895
0.718982
0.718982
0.719014
0.719047
0.719079
0.719111
0.719111
0.719144
0.719176
0.719208
0.719241
0.719241
0.719273
0.719306
0.719338
0.719371
0.719371
0.719403
0.719436
0.719468
0.719501
0.719501
0.719533
0.719566
0.719598
0.719631
0.719631
0.719663
0.719696
0.719729
0.719761
0.719761
0.719794
0.719826
0.719859
0.719892
0.719892
0.719924
0.719957
0.71999
0.720023
0.720023
0.720055
0.720088
0.720121
0.720154
0.720154
0.720186
0.720219
0.720252
0.720285
0.720285
0.720318
0.720351
0.720383
0.720416
0.720416
0.720449
0.720482
0.720515
0.720548
0.720548
0.720581
0.720614
0.720647
0.72068
0.72068
0.720713
0.720746
0.720779
0.720812
0.720812
0.720845
0.720878
0.720911
0.720944
0.720944
0.720977
0.721011
0.721044
0.721077
0.721077
0.72111
0.721143
0.721176
0.72121
0.72121
0.721243
0.721276
0.721309
0.721343
0.721343
0.721376
0.721409
0.721442
0.721476
0.721476
0.721509
0.721542
0.721576
0.721609
0.721609
0.721642
0.721676
0.721709
0.721743
0.721743
0.721776
0.72181
0.721843
0.721876
0.721876
0.72191
0.721943
0.721977
0.72201
0.72201
0.722044
0.722078
0.722111
0.722145
0.722145
0.722178
0.722212
0.722245
0.722279
0.722279
0.722313
0.722346
0.72238
0.722414
0.722414
0.722447
0.722481
0.722515
0.722549
0.722549
0.722582
0.722616
0.72265
0.722684
0.722684
0.722717
0.722751
0.722785
0.722819
0.722819
0.722853
0.722887
0.722921
0.722954
0.722954
0.722988
0.723022
0.723056
0.72309
0.72309
0.723124
0.723158
0.723192
0.723226
0.723226
0.72326
0.723294
0.723328
0.723362
0.723362
0.723396
0.72343
0.723464
0.723498
0.723498
0.723533
0.723567
0.723601
0.723635
0.723635
0.723669
0.723703
0.723738
0.723772
0.723772
0.723806
0.72384
0.723874
0.723909
0.723909
0.723943
0.723977
0.724012
0.724046
0.724046
0.72408
0.724115
0.724149
0.724183
0.724183
0.724218
0.724252
0.724286
0.724321
0.724321
0.724355
0.72439
0.724424
0.724459
0.724459
0.724493
0.724528
0.724562
0.724597
0.724597
0.724631
0.724666
0.7247
0.724735
0.724735
0.72477
0.724804
0.724839
0.724873
0.724873
0.724908
0.724943
0.724977
0.725012
0.725012
0.725047
0.725081
0.725116
0.725151
0.725151
0.725186
0.72522
0.725255
0.72529
0.72529
0.725325
0.72536
0.725394
0.725429
0.725429
0.725464
0.725499
0.725534
0.725569
0.725569
0.725604
0.725639
0.725673
0.725708
0.725708
0.725743
0.725778
0.725813
0.725848
0.725848
0.725883
0.725918
0.725953
0.725988
0.725988
0.726023
0.726059
0.726094
0.726129
0.726129
0.726164
0.726199
0.726234
0.726269
0.726269
0.726304
0.72634
0.726375
0.72641
0.72641
0.726445
0.72648
0.726516
0.726551
0.726551
0.726586
0.726621
0.726657
0.726692
0.726692
0.726727
0.726763
0.726798
0.726833
0.726833
0.726869
0.726904
0.72694
0.726975
0.726975
0.72701
0.727046
0.727081
0.727117
0.727117
0.727152
0.727188
0.727223
0.727259
0.727259
0.727294
0.72733
0.727365
0.727401
0.727401
0.727437
0.727472
0.727508
0.727543
0.727543
0.727579
0.727615
0.72765
0.727686
0.727686
0.727722
0.727757
0.727793
0.727829
0.727829
0.727865
0.7279
0.727936
0.727972
0.727972
0.728008
0.728043
0.728079
0.728115
0.728115
0.728151
0.728187
0.728223
0.728258
0.728258
0.728294
0.72833
0.728366
0.728402
0.728402
0.728438
0.728474
0.72851
0.728546
0.728546
0.728582
0.728618
0.728654
0.72869
0.72869
0.728726
0.728762
0.728798
0.728834
0.728834
0.72887
0.728907
0.728943
0.728979
0.728979
0.729015
0.729051
0.729087
0.729123
0.729123
0.72916
0.729196
0.729232
0.729268
0.729268
0.729305
0.729341
0.729377
0.729413
0.729413
0.72945
0.729486
0.729522
0.729559
0.729559
0.729595
0.729631
0.729668
0.729704
0.729704
0.729741
0.729777
0.729813
0.72985
0.72985
0.729886
0.729923
0.729959
0.729996
0.729996
0.730032
0.730069
0.730105
0.730142
0.730142
0.730179
0.730215
0.730252
0.730288
0.730288
0.730325
0.730362
0.730398
0.730435
0.730435
0.730472
0.730508
0.730545
0.730582
0.730582
0.730618
0.730655
0.730692
0.730729
0.730729
0.730765
0.730802
0.730839
0.730876
0.730876
0.730912
0.730949
0.730986
0.731023
0.731023
0.73106
0.731097
0.731134
0.731171
0.731171
0.731208
0.731244
0.731281
0.731318
0.731318
0.731355
0.731392
0.731429
0.731466
0.731466
0.731503
0.73154
0.731577
0.731615
0.731615
0.731652
0.731689
0.731726
0.731763
0.731763
0.7318
0.731837
0.731874
0.731911
0.731911
0.731949
0.731986
0.732023
0.73206
0.73206
0.732097
0.732135
0.732172
0.732209
0.732209
0.732247
0.732284
0.732321
0.732358
0.732358
0.732396
0.732433
0.73247
0.732508