<?xml version="1.0"?>
<VTKFile type="UnstructuredGrid" version="0.1" byte_order="LittleEndian">
<UnstructuredGrid>
<Piece NumberOfPoints="5000" NumberOfCells="4000">
<PointData Scalars="Reaction 0">
<DataArray type="Float32" Name="Reaction 0" format="ascii">
0.907391
0.907391
0.907391
0.907391
0.907391
0.907391
0.907391
0.907391
0.907391
0.907391
0.907391
0.907391
0.907391
0.907391
0.907391
0.907391
0.907391
0.907391
0.907391
0.907391
0.907391
0.907391
0.907391
0.907392
0.907392
0.907392
0.907392
0.907392
0.907392
0.907392
0.907392
0.907392
0.907392
0.907393
0.907393
0.907393
0.907393
0.907393
0.907393
0.907393
0.907393
0.907393
0.907394
0.907394
0.907394
0.907394
0.907394
0.907394
0.907395
0.907395
0.907395
0.907395
0.907395
0.907395
0.907396
0.907396
0.907396
0.907396
0.907396
0.907397
0.907397
0.907397
0.907397
0.907397
0.907398
0.907398
0.907398
0.907398
0.907398
0.907399
0.907399
0.907399
0.907399
0.9074
0.9074
0.9074
0.9074
0.9074
0.907401
0.907401
0.907401
0.907401
0.907402
0.907402
0.907402
0.907402
0.907403
0.907403
0.907404
0.907404
0.907404
0.907404
0.907405
0.907405
0.907405
0.907405
0.907406
0.907406
0.907407
0.907407
0.907407
0.907407
0.907408
0.907408
0.907409
0.907409
0.907409
0.90741
0.90741
0.90741
0.90741
0.907411
0.907411
0.907412
0.907412
0.907412
0.907413
0.907413
0.907414
0.907414
0.907414
0.907415
0.907415
0.907416
0.907416
0.907416
0.907417
0.907417
0.907418
0.907418
0.907418
0.907419
0.907419
0.90742
0.90742
0.90742
0.907421
0.907422
0.907422
0.907423
0.907423
0.907423
0.907424
0.907424
0.907425
0.907425
0.907426
0.907426
0.907427
0.907427
0.907427
0.907428
0.907429
0.907429
0.90743
0.90743
0.907431
0.907431
0.907432
0.907433
0.907433
0.907433
0.907434
0.907435
0.907435
0.907435
0.907436
0.907437
0.907437
0.907438
0.907438
0.907439
0.907439
0.90744
0.907441
0.907441
0.907441
0.907442
0.907443
0.907444
0.907444
0.907444
0.907445
0.907446
0.907447
0.907447
0.907447
0.907448
0.907449
0.90745
0.90745
0.907451
0.907451
0.907452
0.907453
0.907453
0.907454
0.907454
0.907455
0.907456
0.907456
0.907457
0.907458
0.907459
0.907459
0.907459
0.90746
0.907461
0.907462
0.907463
0.907463
0.907464
0.907465
0.907465
0.907466
0.907466
0.907467
0.907468
0.907469
0.90747
0.90747
0.907471
0.907472
0.907473
0.907473
0.907473
0.907474
0.907475
0.907476
0.907477
0.907477
0.907478
0.907479
0.90748
0.907481
0.907481
0.907482
0.907483
0.907484
0.907485
0.907485
0.907486
0.907487
0.907488
0.907489
0.907489
0.90749
0.907491
0.907492
0.907493
0.907493
0.907494
0.907495
0.907496
0.907497
0.907497
0.907498
0.907499
0.9075
0.907501
0.907501
0.907502
0.907503
0.907504
0.907506
0.907506
0.907507
0.907508
0.907509
0.90751
0.90751
0.907511
0.907512
0.907513
0.907514
0.907514
0.907515
0.907517
0.907518
0.907519
0.907519
0.90752
0.907521
0.907522
0.907524
0.907524
0.907525
0.907526
0.907527
0.907528
0.907528
0.907529
0.907531
0.907532
0.907533
0.907533
0.907534
0.907535
0.907537
0.907538
0.907538
0.907539
0.90754
0.907542
0.907543
0.907543
0.907544
0.907545
0.907547
0.907548
0.907548
0.907549
0.90755
0.907552
0.907553
0.907553
0.907554
0.907556
0.907557
0.907558
0.907558
0.907559
0.907561
0.907562
0.907563
0.907563
0.907565
0.907566
0.907567
0.907569
0.907569
0.90757
0.907571
0.907573
0.907574
0.907574
0.907576
0.907577
0.907578
0.90758
0.90758
0.907581
0.907582
0.907584
0.907585
0.907585
0.907587
0.907588
0.90759
0.907591
0.907591
0.907592
0.907594
0.907595
0.907597
0.907597
0.907598
0.9076
0.907601
0.907603
0.907603
0.907604
0.907606
0.907607
0.907609
0.907609
0.90761
0.907611
0.907613
0.907615
0.907615
0.907616
0.907618
0.907619
0.907621
0.907621
0.907622
0.907624
0.907625
0.907627
0.907627
0.907628
0.90763
0.907631
0.907633
0.907633
0.907635
0.907636
0.907638
0.907639
0.907639
0.907641
0.907643
0.907644
0.907646
0.907646
0.907647
0.907649
0.907651
0.907652
0.907652
0.907654
0.907656
0.907657
0.907659
0.907659
0.90766
0.907662
0.907664
0.907665
0.907665
0.907667
0.907669
0.90767
0.907672
0.907672
0.907674
0.907676
0.907677
0.907679
0.907679
0.907681
0.907682
0.907684
0.907686
0.907686
0.907688
0.907689
0.907691
0.907693
0.907693
0.907695
0.907696
0.907698
0.9077
0.9077
0.907702
0.907704
0.907705
0.907707
0.907707
0.907709
0.907711
0.907712
0.907714
0.907714
0.907716
0.907718
0.90772
0.907722
0.907722
0.907723
0.907725
0.907727
0.907729
0.907729
0.907731
0.907733
0.907735
0.907736
0.907736
0.907738
0.90774
0.907742
0.907744
0.907744
0.907746
0.907748
0.90775
0.907752
0.907752
0.907754
0.907755
0.907757
0.907759
0.907759
0.907761
0.907763
0.907765
0.907767
0.907767
0.907769
0.907771
0.907773
0.907775
0.907775
0.907777
0.907779
0.907781
0.907783
0.907783
0.907785
0.907787
0.907789
0.907791
0.907791
0.907793
0.907795
0.907797
0.907799
0.907799
0.907801
0.907803
0.907805
0.907807
0.907807
0.907809
0.907811
0.907813
0.907816
0.907816
0.907818
0.90782
0.907822
0.907824
0.907824
0.907826
0.907828
0.90783
0.907832
0.907832
0.907834
0.907837
0.907839
0.907841
0.907841
0.907843
0.907845
0.907847
0.907849
0.907849
0.907852
0.907854
0.907856
0.907858
0.907858
0.90786
0.907863
0.907865
0.907867
0.907867
0.907869
0.907871
0.907874
0.907876
0.907876
0.907878
0.90788
0.907882
0.907885
0.907885
0.907887
0.907889
0.907891
0.907894
0.907894
0.907896
0.907898
0.9079
0.907903
0.907903
0.907905
0.907907
0.90791
0.907912
0.907912
0.907914
0.907917
0.907919
0.907921
0.907921
0.907923
0.907926
0.907928
0.90793
0.90793
0.907933
0.907935
0.907938
0.90794
0.90794
0.907942
0.907945
0.907947
0.907949
0.907949
0.907952
0.907954
0.907957
0.907959
0.907959
0.907961
0.907964
0.907966
0.907969
0.907969
0.907971
0.907973
0.907976
0.907978
0.907978
0.907981
0.907983
0.907986
0.907988
0.907988
0.907991
0.907993
0.907996
0.907998
0.907998
0.908001
0.908003
0.908005
0.908008
0.908008
0.90801
0.908013
0.908016
0.908018
0.908018
0.908021
0.908023
0.908026
0.908028
0.908028
0.908031
0.908033
0.908036
0.908038
0.908038
0.908041
0.908044
0.908046
0.908049
0.908049
0.908051
0.908054
0.908056
0.908059
0.908059
0.908062
0.908064
0.908067
0.908069
0.908069
0.908072
0.908075
0.908077
0.90808
0.90808
0.908083
0.908085
0.908088
0.908091
0.908091
0.908093
0.908096
0.908099
0.908101
0.908101
0.908104
0.908107
0.908109
0.908112
0.908112
0.908115
0.908118
0.90812
0.908123
0.908123
0.908126
0.908128
0.908131
0.908134
0.908134
0.908137
0.908139
0.908142
0.908145
0.908145
0.908148
0.90815
0.908153
0.908156
0.908156
0.908159
0.908162
0.908164
0.908167
0.908167
0.90817
0.908173
0.908176
0.908178
0.908178
0.908181
0.908184
0.908187
0.90819
0.90819
0.908193
0.908195
0.908198
0.908201
0.908201
0.908204
0.908207
0.90821
0.908213
0.908213
0.908216
0.908218
0.908221
0.908224
0.908224
0.908227
0.90823
0.908233
0.908236
0.908236
0.908239
0.908242
0.908245
0.908248
0.908248
0.908251
0.908254
0.908256
0.908259
0.908259
0.908262
0.908265
0.908268
0.908271
0.908271
0.908274
0.908277
0.90828
0.908283
0.908283
0.908286
0.908289
0.908292
0.908295
0.908295
0.908298
0.908301
0.908304
0.908307
0.908307
0.908311
0.908314
0.908317
0.90832
0.90832
0.908323
0.908326
0.908329
0.908332
0.908332
0.908335
0.908338
0.908341
0.908344
0.908344
0.908347
0.908351
0.908354
0.908357
0.908357
0.90836
0.908363
0.908366
0.908369
0.908369
0.908373
0.908376
0.908379
0.908382
0.908382
0.908385
0.908388
0.908391
0.908395
0.908395
0.908398
0.908401
0.908404
0.908407
0.908407
0.908411
0.908414
0.908417
0.90842
0.90842
0.908424
0.908427
0.90843
0.908433
0.908433
0.908436
0.90844
0.908443
0.908446
0.908446
0.908449
0.908453
0.908456
0.908459
0.908459
0.908463
0.908466
0.908469
0.908472
0.908472
0.908476
0.908479
0.908482
0.908486
0.908486
0.908489
0.908492
0.908496
0.908499
0.908499
0.908502
0.908506
0.908509
0.908512
0.908512
0.908516
0.908519
0.908523
0.908526
0.908526
0.908529
0.908533
0.908536
0.90854
0.90854
0.908543
0.908546
0.90855
0.908553
0.908553
0.908557
0.90856
0.908563
0.908567
0.908567
0.90857
0.908574
0.908577
0.908581
0.908581
0.908584
0.908588
0.908591
0.908595
0.908595
0.908598
0.908602
0.908605
0.908609
0.908609
0.908612
0.908616
0.908619
0.908623
0.908623
0.908626
0.90863
0.908633
0.908637
0.908637
0.90864
0.908644
0.908647
0.908651
0.908651
0.908654
0.908658
0.908662
0.908665
0.908665
0.908669
0.908672
0.908676
0.90868
0.90868
0.908683
0.908687
0.90869
0.908694
0.908694
0.908698
0.908701
0.908705
0.908708
0.908708
0.908712
0.908716
0.908719
0.908723
0.908723
0.908727
0.90873
0.908734
0.908738
0.908738
0.908741
0.908745
0.908749
0.908752
0.908752
0.908756
0.90876
0.908764
0.908767
0.908767
0.908771
0.908775
0.908778
0.908782
0.908782
0.908786
0.90879
0.908793
0.908797
0.908797
0.908801
0.908805
0.908809
0.908812
0.908812
0.908816
0.90882
0.908824
0.908827
0.908827
0.908831
0.908835
0.908839
0.908843
0.908843
0.908846
0.90885
0.908854
0.908858
0.908858
0.908862
0.908866
0.908869
0.908873
0.908873
0.908877
0.908881
0.908885
0.908889
0.908889
0.908893
0.908897
0.9089
0.908904
0.908904
0.908908
0.908912
0.908916
0.90892
0.90892
0.908924
0.908928
0.908932
0.908936
0.908936
0.90894
0.908944
0.908947
0.908951
0.908951
0.908955
0.908959
0.908963
0.908967
0.908967
0.908971
0.908975
0.908979
0.908983
0.908983
0.908987
0.908991
0.908995
0.908999
0.908999
0.909003
0.909007
0.909011
0.909015
0.909015
0.909019
0.909023
0.909027
0.909031
0.909031
0.909036
0.90904
0.909044
0.909048
0.909048
0.909052
0.909056
0.90906
0.909064
0.909064
0.909068
0.909072
0.909076
0.90908
0.90908
0.909085
0.909089
0.909093
0.909097
0.909097
0.909101
0.909105
0.909109
0.909113
0.909113
0.909118
0.909122
0.909126
0.90913
0.90913
0.909134
0.909138
0.909143
0.909147
0.909147
0.909151
0.909155
0.909159
0.909164
0.909164
0.909168
0.909172
0.909176
0.90918
0.90918
0.909185
0.909189
0.909193
0.909197
0.909197
0.909202
0.909206
0.90921
0.909214
0.909214
0.909219
0.909223
0.909227
0.909232
0.909232
0.909236
0.90924
0.909244
0.909249
0.909249
0.909253
0.909257
0.909262
0.909266
0.909266
0.90927
0.909275
0.909279
0.909283
0.909283
0.909288
0.909292
0.909296
0.909301
0.909301
0.909305
0.909309
0.909314
0.909318
0.909318
0.909323
0.909327
0.909331
0.909336
0.909336
0.90934
0.909345
0.909349
0.909353
0.909353
0.909358
0.909362
0.909367
0.909371
0.909371
0.909376
0.90938
0.909384
0.909389
0.909389
0.909393
0.909398
0.909402
0.909407
0.909407
0.909411
0.909416
0.90942
0.909425
0.909425
0.909429
0.909434
0.909438
0.909443
0.909443
0.909447
0.909452
0.909456
0.909461
0.909461
0.909465
0.90947
0.909475
0.909479
0.909479
0.909484
0.909488
0.909493
0.909497
0.909497
0.909502
0.909506
0.909511
0.909516
0.909516
0.90952
0.909525
0.909529
0.909534
0.909534
0.909539
0.909543
0.909548
0.909553
0.909553
0.909557
0.909562
0.909566
0.909571
0.909571
0.909576
0.90958
0.909585
0.90959
0.90959
0.909594
0.909599
0.909604
0.909609
0.909609
0.909613
0.909618
0.909623
0.909627
0.909627
0.909632
0.909637
0.909641
0.909646
0.909646
0.909651
0.909656
0.90966
0.909665
0.909665
0.90967
0.909675
0.909679
0.909684
0.909684
0.909689
0.909694
0.909699
0.909703
0.909703
0.909708
0.909713
0.909718
0.909722
0.909722
0.909727
0.909732
0.909737
0.909742
0.909742
0.909747
0.909751
0.909756
0.909761
0.909761
0.909766
0.909771
0.909776
0.90978
0.90978
0.909785
0.90979
0.909795
0.9098
0.9098
0.909805
0.90981
0.909815
0.90982
0.90982
0.909824
0.909829
0.909834
0.909839
0.909839
0.909844
0.909849
0.909854
0.909859
0.909859
0.909864
0.909869
0.909874
0.909879
0.909879
0.909884
0.909889
0.909894
0.909899
0.909899
0.909904
0.909909
0.909914
0.909919
0.909919
0.909924
0.909929
0.909934
0.909939
0.909939
0.909944
0.909949
0.909954
0.909959
0.909959
0.909964
0.909969
0.909974
0.909979
0.909979
0.909984
0.909989
0.909994
0.909999
0.909999
0.910004
0.910009
0.910014
0.910019
0.910019
0.910025
0.91003
0.910035
0.91004
0.91004
0.910045
0.91005
0.910055
0.91006
0.91006
0.910065
0.910071
0.910076
0.910081
0.910081
0.910086
0.910091
0.910096
0.910102
0.910102
0.910107
0.910112
0.910117
0.910122
0.910122
0.910127
0.910133
0.910138
0.910143
0.910143
0.910148
0.910153
0.910159
0.910164
0.910164
0.910169
0.910174
0.91018
0.910185
0.910185
0.91019
0.910195
0.910201
0.910206
0.910206
0.910211
0.910216
0.910222
0.910227
0.910227
0.910232
0.910237
0.910243
0.910248
0.910248
0.910253
0.910259
0.910264
0.910269
0.910269
0.910275
0.91028
0.910285
0.910291
0.910291
0.910296
0.910301
0.910307
0.910312
0.910312
0.910317
0.910323
0.910328
0.910333
0.910333
0.910339
0.910344
0.91035
0.910355
0.910355
0.91036
0.910366
0.910371
0.910377
0.910377
0.910382
0.910387
0.910393
0.910398
0.910398
0.910404
0.910409
0.910415
0.91042
0.91042
0.910426
0.910431
0.910436
0.910442
0.910442
0.910447
0.910453
0.910458
0.910464
0.910464
0.910469
0.910475
0.91048
0.910486
0.910486
0.910491
0.910497
0.910502
0.910508
0.910508
0.910513
0.910519
0.910525
0.91053
0.91053
0.910536
0.910541
0.910547
0.910552
0.910552
0.910558
0.910563
0.910569
0.910575
0.910575
0.91058
0.910586
0.910591
0.910597
0.910597
0.910603
0.910608
0.910614
0.910619
0.910619
0.910625
0.910631
0.910636
0.910642
0.910642
0.910648
0.910653
0.910659
0.910665
0.910665
0.91067
0.910676
0.910682
0.910687
0.910687
0.910693
0.910699
0.910704
0.91071
0.91071
0.910716
0.910721
0.910727
0.910733
0.910733
0.910738
0.910744
0.91075
0.910756
0.910756
0.910761
0.910767
0.910773
0.910779
0.910779
0.910784
0.91079
0.910796
0.910802
0.910802
0.910807
0.910813
0.910819
0.910825
0.910825
0.910831
0.910836
0.910842
0.910848
0.910848
0.910854
0.91086
0.910865
0.910871
0.910871
0.910877
0.910883
0.910889
0.910895
0.910895
0.9109
0.910906
0.910912
0.910918
0.910918
0.910924
0.91093
0.910936
0.910941
0.910941
0.910947
0.910953
0.910959
0.910965
0.910965
0.910971
0.910977
0.910983
0.910989
0.910989
0.910995
0.911
0.911006
0.911012
0.911012
0.911018
0.911024
0.91103
0.911036
0.911036
0.911042
0.911048
0.911054
0.91106
0.91106
0.911066
0.911072
0.911078
0.911084
0.911084
0.91109
0.911096
0.911102
0.911108
0.911108
0.911114
0.91112
0.911126
0.911132
0.911132
0.911138
0.911144
0.91115
0.911156
0.911156
0.911162
0.911168
0.911174
0.91118
0.91118
0.911186
0.911192
0.911199
0.911205
0.911205
0.911211
0.911217
0.911223
0.911229
0.911229
0.911235
0.911241
0.911247
0.911253
0.911253
0.91126
0.911266
0.911272
0.911278
0.911278
0.911284
0.91129
0.911296
0.911303
0.911303
0.911309
0.911315
0.911321
0.911327
0.911327
0.911333
0.91134
0.911346
0.911352
0.911352
0.911358
0.911364
0.911371
0.911377
0.911377
0.911383
0.911389
0.911395
0.911402
0.911402
0.911408
0.911414
0.91142
0.911427
0.911427
0.911433
0.911439
0.911445
0.911452
0.911452
0.911458
0.911464
0.91147
0.911477
0.911477
0.911483
0.911489
0.911496
0.911502
0.911502
0.911508
0.911514
0.911521
0.911527
0.911527
0.911533
0.91154
0.911546
0.911552
0.911552
0.911559
0.911565
0.911571
0.911578
0.911578
0.911584
0.911591
0.911597
0.911603
0.911603
0.91161
0.911616
0.911622
0.911629
0.911629
0.911635
0.911642
0.911648
0.911654
0.911654
0.911661
0.911667
0.911674
0.91168
0.91168
0.911687
0.911693
0.911699
0.911706
0.911706
0.911712
0.911719
0.911725
0.911732
0.911732
0.911738
0.911745
0.911751
0.911758
0.911758
0.911764
0.911771
0.911777
0.911784
0.911784
0.91179
0.911797
0.911803
0.91181
0.91181
0.911816
0.911823
0.911829
0.911836
0.911836
0.911842
0.911849
0.911855
0.911862
0.911862
0.911868
0.911875
0.911882
0.911888
0.911888
0.911895
0.911901
0.911908
0.911915
0.911915
0.911921
0.911928
0.911934
0.911941
0.911941
0.911948
0.911954
0.911961
0.911967
0.911967
0.911974
0.911981
0.911987
0.911994
0.911994
0.912001
0.912007
0.912014
0.912021
0.912021
0.912027
0.912034
0.912041
0.912047
0.912047
0.912054
0.912061
0.912067
0.912074
0.912074
0.912081
0.912087
0.912094
0.912101
0.912101
0.912108
0.912114
0.912121
0.912128
0.912128
0.912135
0.912141
0.912148
0.912155
0.912155
0.912162
0.912168
0.912175
0.912182
0.912182
0.912189
0.912195
0.912202
0.912209
0.912209
0.912216
0.912223
0.912229
0.912236
0.912236
0.912243
0.91225
0.912257
0.912263
0.912263
0.91227
0.912277
0.912284
0.912291
0.912291
0.912298
0.912304
0.912311
0.912318
0.912318
0.912325
0.912332
0.912339
0.912346
0.912346
0.912352
0.912359
0.912366
0.912373
0.912373
0.91238
0.912387
0.912394
0.912401
0.912401
0.912408
0.912415
0.912422
0.912428
0.912428
0.912435
0.912442
0.912449
0.912456
0.912456
0.912463
0.91247
0.912477
0.912484
0.912484
0.912491
0.912498
0.912505
0.912512
0.912512
0.912519
0.912526
0.912533
0.91254
0.91254
0.912547
0.912554
0.912561
0.912568
0.912568
0.912575
0.912582
0.912589
0.912596
0.912596
0.912603
0.91261
0.912617
0.912624
0.912624
0.912631
0.912638
0.912645
0.912653
0.912653
0.91266
0.912667
0.912674
0.912681
0.912681
0.912688
0.912695
0.912702
0.912709
0.912709
0.912716
0.912723
0.912731
0.912738
0.912738
0.912745
0.912752
0.912759
0.912766
0.912766
0.912773
0.912781
0.912788
0.912795
0.912795
0.912802
0.912809
0.912816
0.912824
0.912824
0.912831
0.912838
0.912845
0.912852
0.912852
0.912859
0.912867
0.912874
0.912881
0.912881
0.912888
0.912896
0.912903
0.91291
0.91291
0.912917
0.912924
0.912932
0.912939
0.912939
0.912946
0.912953
0.912961
0.912968
0.912968
0.912975
0.912983
0.91299
0.912997
0.912997
0.913004
0.913012
0.913019
0.913026
0.913026
0.913034
0.913041
0.913048
0.913055
0.913055
0.913063
0.91307
0.913077
0.913085
0.913085
0.913092
0.913099
0.913107
0.913114
0.913114
0.913121
0.913129
0.913136
0.913144
0.913144
0.913151
0.913158
0.913166
0.913173
0.913173
0.91318
0.913188
0.913195
0.913203
0.913203
0.91321
0.913217
0.913225
0.913232
0.913232
0.91324
0.913247
0.913255
0.913262
0.913262
0.913269
0.913277
0.913284
0.913292
0.913292
0.913299
0.913307
0.913314
0.913322
0.913322
0.913329
0.913337
0.913344
0.913352
0.913352
0.913359
0.913367
0.913374
0.913382
0.913382
0.913389
0.913397
0.913404
0.913412
0.913412
0.913419
0.913427
0.913434
0.913442
0.913442
0.913449
0.913457
0.913464
0.913472
0.913472
0.91348
0.913487
0.913495
0.913502
0.913502
0.91351
0.913517
0.913525
0.913533
0.913533
0.91354
0.913548
0.913555
0.913563
0.913563
0.913571
0.913578
0.913586
0.913594
0.913594
0.913601
0.913609
0.913616
0.913624
0.913624
0.913632
0.913639
0.913647
0.913655
0.913655
0.913662
0.91367
0.913678
0.913685
0.913685
0.913693
0.913701
0.913708
0.913716
0.913716
0.913724
0.913732
0.913739
0.913747
0.913747
0.913755
0.913762
0.91377
0.913778
0.913778
0.913786
0.913793
0.913801
0.913809
0.913809
0.913817
0.913824
0.913832
0.91384
0.91384
0.913848
0.913855
0.913863
0.913871
0.913871
0.913879
0.913886
0.913894
0.913902
0.913902
0.91391
0.913918
0.913925
0.913933
0.913933
0.913941
0.913949
0.913957
0.913965
0.913965
0.913972
0.91398
0.913988
0.913996
0.913996
0.914004
0.914012
0.91402
0.914027
0.914027
0.914035
0.914043
0.914051
0.914059
0.914059
0.914067
0.914075
0.914083
0.91409
0.91409
0.914098
0.914106
0.914114
0.914122
0.914122
0.91413
0.914138
0.914146
0.914154
0.914154
0.914162
0.91417
0.914178
0.914186
0.914186
0.914193
0.914201
0.914209
0.914217
0.914217
0.914225
0.914233
0.914241
0.914249
0.914249
0.914257
0.914265
0.914273
0.914281
0.914281
0.914289
0.914297
0.914305
0.914313
0.914313
0.914321
0.914329
0.914337
0.914345
0.914345
0.914353
0.914361
0.91437
0.914378
0.914378
0.914386
0.914394
0.914402
0.91441
0.91441
0.914418
0.914426
0.914434
0.914442
0.914442
0.91445
0.914458
0.914466
0.914474
0.914474
0.914483
0.914491
0.914499
0.914507
0.914507
0.914515
0.914523
0.914531
0.914539
0.914539
0.914548
0.914556
0.914564
0.914572
0.914572
0.91458
0.914588
0.914596
0.914605
0.914605
0.914613
0.914621
0.914629
0.914637
0.914637
0.914645
0.914654
0.914662
0.91467
0.91467
0.914678
0.914686
0.914695
0.914703
0.914703
0.914711
0.914719
0.914728
0.914736
0.914736
0.914744
0.914752
0.914761
0.914769
0.914769
0.914777
0.914785
0.914794
0.914802
0.914802
0.91481
0.914818
0.914827
0.914835
0.914835
0.914843
0.914851
0.91486
0.914868
0.914868
0.914876
0.914885
0.914893
0.914901
0.914901
0.91491
0.914918
0.914926
0.914935
0.914935
0.914943
0.914951
0.91496
0.914968
0.914968
0.914976
0.914985
0.914993
0.915001
0.915001
0.91501
0.915018
0.915027
0.915035
0.915035
0.915043
0.915052
0.91506
0.915068
0.915068
0.915077
0.915085
0.915094
0.915102
0.915102
0.91511
0.915119
0.915127
0.915136
0.915136
0.915144
0.915153
0.915161
0.91517
0.91517
0.915178
0.915186
0.915195
0.915203
0.915203
0.915212
0.91522
0.915229
0.915237
0.915237
0.915246
0.915254
0.915263
0.915271
0.915271
0.91528
0.915288
0.915297
0.915305
0.915305
0.915314
0.915322
0.915331
0.915339
0.915339
0.915348
0.915356
0.915365
0.915373
0.915373
0.915382
0.915391
0.915399
0.915408
0.915408
0.915416
0.915425
0.915433
0.915442
0.915442
0.91545
0.915459
0.915468
0.915476
0.915476
0.915485
0.915493
0.915502
0.915511
0.915511
0.915519
0.915528
0.915536
0.915545
0.915545
0.915554
0.915562
0.915571
0.91558
0.91558
0.915588
0.915597
0.915606
0.915614
0.915614
0.915623
0.915632
0.91564
0.915649
0.915649
0.915658
0.915666
0.915675
0.915684
0.915684
0.915692
0.915701
0.91571
0.915718
0.915718
0.915727
0.915736
0.915745
0.915753
0.915753
0.915762
0.915771
0.915779
0.915788
0.915788
0.915797
0.915806
0.915814
0.915823
0.915823
0.915832
0.915841
0.915849
0.915858
0.915858
0.915867
0.915876
0.915885
0.915893
0.915893
0.915902
0.915911
0.91592
0.915929
0.915929
0.915937
0.915946
0.915955
0.915964
0.915964
0.915973
0.915981
0.91599
0.915999
0.915999
0.916008
0.916017
0.916026
0.916034
0.916034
0.916043
0.916052
0.916061
0.91607
0.91607
0.916079
0.916088
0.916096
0.916105
0.916105
0.916114
0.916123
0.916132
0.916141
0.916141
0.91615
0.916159
0.916168
0.916177
0.916177
0.916185
0.916194
0.916203
0.916212
0.916212
0.916221
0.91623
0.916239
0.916248
0.916248
0.916257
0.916266
0.916275
0.916284
0.916284
0.916293
0.916302
0.916311
0.91632
0.91632
0.916329
0.916338
0.916347
0.916356
0.916356
0.916365
0.916374
0.916383
0.916392
0.916392
0.916401
0.91641
0.916419
0.916428
0.916428
0.916437
0.916446
0.916455
0.916464
0.916464
0.916473
0.916482
0.916491
0.9165
0.9165
0.916509
0.916518
0.916527
0.916536
0.916536
0.916545
0.916554
0.916563
0.916572
0.916572
0.916582
0.916591
0.9166
0.916609
0.916609
0.916618
0.916627
0.916636
0.916645
0.916645
0.916654
0.916664
0.916673
0.916682
0.916682
0.916691
0.9167
0.916709
0.916718
0.916718
0.916727
0.916737
0.916746
0.916755
0.916755
0.916764
0.916773
0.916782
0.916792
0.916792
0.916801
0.91681
0.916819
0.916828
0.916828
0.916838
0.916847
0.916856
0.916865
0.916865
0.916874
0.916884
0.916893
0.916902
0.916902
0.916911
0.91692
0.91693
0.916939
0.916939
0.916948
0.916957
0.916967
0.916976
0.916976
0.916985
0.916994
0.917004
0.917013
0.917013
0.917022
0.917032
0.917041
0.91705
0.91705
0.917059
0.917069
0.917078
0.917087
0.917087
0.917097
0.917106
0.917115
0.917125
0.917125
0.917134
0.917143
0.917153
0.917162
0.917162
0.917171
0.917181
0.91719
0.917199
0.917199
0.917209
0.917218
0.917227
0.917237
0.917237
0.917246
0.917255
0.917265
0.917274
0.917274
0.917283
0.917293
0.917302
0.917312
0.917312
0.917321
0.91733
0.91734
0.917349
0.917349
0.917359
0.917368
0.917378
0.917387
0.917387
0.917396
0.917406
0.917415
0.917425
0.917425
0.917434
0.917444
0.917453
0.917462
0.917462
0.917472
0.917481
0.917491
0.9175
0.9175
0.91751
0.917519
0.917529
0.917538
0.917538
0.917548
0.917557
0.917567
0.917576
0.917576
0.917586
0.917595
0.917605
0.917614
0.917614
0.917624
0.917633
0.917643
0.917652
0.917652
0.917662
0.917671
0.917681
0.91769
0.91769
0.9177
0.91771
0.917719
0.917729
0.917729
0.917738
0.917748
0.917757
0.917767
0.917767
0.917776
0.917786
0.917796
0.917805
0.917805
0.917815
0.917824
0.917834
0.917844
0.917844
0.917853
0.917863
0.917872
0.917882
0.917882
0.917892
0.917901
0.917911
0.917921
0.917921
0.91793
0.91794
0.91795
0.917959
0.917959
0.917969
0.917978
0.917988
0.917998
0.917998
0.918007
0.918017
0.918027
0.918036
0.918036
0.918046
0.918056
0.918066
0.918075
0.918075
0.918085
0.918095
0.918104
0.918114
0.918114
0.918124
0.918133
0.918143
0.918153
0.918153
0.918163
0.918172
0.918182
0.918192
0.918192
0.918202
0.918211
0.918221
0.918231
0.918231
0.918241
0.91825
0.91826
0.91827
0.91827
0.91828
0.918289
0.918299
0.918309
0.918309
0.918319
0.918329
0.918338
0.918348
0.918348
0.918358
0.918368
0.918378
0.918387
0.918387
0.918397
0.918407
0.918417
0.918427
0.918427
0.918436
0.918446
0.918456
0.918466
0.918466
0.918476
0.918486
0.918496
0.918505
0.918505
0.918515
0.918525
0.918535
0.918545
0.918545
0.918555
0.918565
0.918574
0.918584
0.918584
0.918594
0.918604
0.918614
0.918624
0.918624
0.918634
0.918644
0.918654
0.918664
0.918664
0.918673
0.918683
0.918693
0.918703
0.918703
0.918713
0.918723
0.918733
0.918743
0.918743
0.918753
0.918763
0.918773
0.918783
0.918783
0.918793
0.918803
0.918813
0.918823
0.918823
0.918833
0.918843
0.918853
0.918863
0.918863
0.918873
0.918883
0.918893
0.918903
0.918903
0.918913
0.918923
0.918933
0.918943
0.918943
0.918953
0.918963
0.918973
0.918983
0.918983
0.918993
0.919003
0.919013
0.919023
0.919023
0.919033
0.919043
0.919053
0.919063
0.919063
0.919073
0.919083
0.919093
0.919103
0.919103
0.919113
0.919124
0.919134
0.919144
0.919144
0.919154
0.919164
0.919174
0.919184
0.919184
0.919194
0.919204
0.919214
0.919225
0.919225
0.919235
0.919245
0.919255
0.919265
0.919265
0.919275
0.919285
0.919295
0.919306
0.919306
0.919316
0.919326
0.919336
0.919346
0.919346
0.919356
0.919367
0.919377
0.919387
0.919387
0.919397
0.919407
0.919417
0.919428
0.919428
0.919438
0.919448
0.919458
0.919468
0.919468
0.919479
0.919489
0.919499
0.919509
0.919509
0.919519
0.91953
0.91954
0.91955
0.91955
0.91956
0.919571
0.919581
0.919591
0.919591
0.919601
0.919612
0.919622
0.919632
0.919632
0.919642
0.919653
0.919663
0.919673
0.919673
0.919683
0.919694
0.919704
0.919714
0.919714
0.919725
0.919735
0.919745
0.919755
0.919755
0.919766
0.919776
0.919786
0.919797
0.919797
0.919807
0.919817
0.919828
0.919838
0.919838
0.919848
0.919859
0.919869
0.919879
0.919879
0.91989
0.9199
0.91991
0.919921
0.919921
0.919931
0.919941
0.919952
0.919962
0.919962
0.919973
0.919983
0.919993
0.920004
0.920004
0.920014
0.920024
0.920035
0.920045
0.920045
0.920056
0.920066
0.920076
0.920087
0.920087
0.920097
0.920108
0.920118
0.920129
0.920129
0.920139
0.920149
0.92016
0.92017
0.92017
0.920181
0.920191
0.920202
0.920212
0.920212
0.920223
0.920233
0.920244
0.920254
0.920254
0.920264
0.920275
0.920285
0.920296
0.920296
0.920306
0.920317
0.920327
0.920338
0.920338
0.920348
0.920359
0.920369
0.92038
0.92038
0.92039
0.920401
0.920411
0.920422
0.920422
0.920432
0.920443
0.920454
0.920464
0.920464
0.920475
0.920485
0.920496
0.920506
0.920506
0.920517
0.920527
0.920538
0.920548
0.920548
0.920559
0.92057
0.92058
0.920591
0.920591
0.920601
0.920612
0.920623
0.920633
0.920633
0.920644
0.920654
0.920665
0.920676
0.920676
0.920686
0.920697
0.920707
0.920718
0.920718
0.920729
0.920739
0.92075
0.92076
0.92076
0.920771
0.920782
0.920792
0.920803
0.920803
0.920814
0.920824
0.920835
0.920846
0.920846
0.920856
0.920867
0.920878
0.920888
0.920888
0.920899
0.92091
0.92092
0.920931
0.920931
0.920942
0.920952
0.920963
0.920974
0.920974
0.920985
0.920995
0.921006
0.921017
0.921017
0.921027
0.921038
0.921049
0.92106
0.92106
0.92107
0.921081
0.921092
0.921103
0.921103
0.921113
0.921124
0.921135
0.921146
0.921146
0.921156
0.921167
0.921178
0.921189
0.921189
0.921199
0.92121
0.921221
0.921232
0.921232
0.921242
0.921253
0.921264
0.921275
0.921275
0.921286
0.921296
0.921307
0.921318
0.921318
0.921329
0.92134
0.92135
0.921361
0.921361
0.921372
0.921383
0.921394
0.921405
0.921405
0.921415
0.921426
0.921437
0.921448
0.921448
0.921459
0.92147
0.921481
0.921491
0.921491
0.921502
0.921513
0.921524
0.921535
0.921535
0.921546
0.921557
0.921568
0.921578
0.921578
0.921589
0.9216
0.921611
0.921622
0.921622
0.921633
0.921644
0.921655
0.921666
0.921666
0.921677
0.921687
0.921698
0.921709
0.921709
0.92172
0.921731
0.921742
0.921753
0.921753
0.921764
0.921775
0.921786
0.921797
0.921797
0.921808
0.921819
0.92183
0.921841
0.921841
0.921852
0.921863
0.921874
0.921885
0.921885
0.921896
0.921907
0.921918
0.921929
0.921929
0.92194
0.921951
0.921962
0.921973
0.921973
0.921984
0.921995
0.922006
0.922017
0.922017
0.922028
0.922039
0.92205
0.922061
0.922061
0.922072
0.922083
0.922094
0.922105
0.922105
0.922116
0.922127
0.922138
0.922149
0.922149
0.92216
0.922171
0.922182
0.922193
0.922193
0.922204
0.922216
0.922227
0.922238
0.922238
0.922249
0.92226
0.922271
0.922282
0.922282
0.922293
0.922304
0.922315
0.922326
0.922326
0.922338
0.922349
0.92236
0.922371
0.922371
0.922382
0.922393
0.922404
0.922415
0.922415
0.922427
0.922438
0.922449
0.92246
0.92246
0.922471
0.922482
0.922493
0.922505
0.922505
0.922516
0.922527
0.922538
0.922549
0.922549
0.92256
0.922572
0.922583
0.922594
0.922594
0.922605
0.922616
0.922628
0.922639
0.922639
0.92265
0.922661
0.922672
0.922684
0.922684
0.922695
0.922706
0.922717
0.922729
0.922729
0.92274
0.922751
0.922762
0.922773
0.922773
0.922785
0.922796
0.922807
0.922818
0.922818
0.92283
0.922841
0.922852
0.922863
0.922863
0.922875
0.922886
0.922897
0.922909
0.922909
0.92292
0.922931
0.922942
0.922954
0.922954
0.922965
0.922976
0.922988
0.922999
0.922999
0.92301
0.923021
0.923033
0.923044
0.923044
0.923055
0.923067
0.923078
0.923089
0.923089
0.923101
0.923112
0.923123
0.923135
0.923135
0.923146
0.923157
0.923169
0.92318
0.92318
0.923191
0.923203
0.923214
0.923226
0.923226
0.923237
0.923248
0.92326
0.923271
0.923271
0.923282
0.923294
0.923305
0.923317
0.923317
0.923328
0.923339
0.923351
0.923362
0.923362
0.923374
0.923385
0.923396
0.923408
0.923408
0.923419
0.923431
0.923442
0.923453
0.923453
0.923465
0.923476
0.923488
0.923499
0.923499
0.923511
0.923522
0.923534
0.923545
0.923545
0.923556
0.923568
0.923579
0.923591
0.923591
0.923602
0.923614
0.923625
0.923637
0.923637
0.923648
0.92366
0.923671
0.923683
0.923683
0.923694
0.923706
0.923717
0.923729
0.923729
0.92374
0.923752
0.923763
0.923775
0.923775
0.923786
0.923798
0.923809
0.923821
0.923821
0.923832
0.923844
0.923855
0.923867
0.923867
0.923878
0.92389
0.923901
0.923913
0.923913
0.923925
0.923936
0.923948
0.923959
0.923959
0.923971
0.923982
0.923994
0.924005
0.924005
0.924017
0.924029
0.92404
0.924052
0.924052
0.924063
0.924075
0.924087
0.924098
0.924098
0.92411
0.924121
0.924133
0.924145
0.924145
0.924156
0.924168
0.924179
0.924191
0.924191
0.924203
0.924214
0.924226
0.924238
0.924238