<?xml version="1.0"?>
<VTKFile type="UnstructuredGrid" version="0.1" byte_order="LittleEndian">
<UnstructuredGrid>
<Piece NumberOfPoints="5000" NumberOfCells="4000">
<PointData Scalars="Reaction 0">
<DataArray type="Float32" Name="Reaction 0" format="ascii">
0.832412
0.832412
0.832412
0.832412
0.832412
0.832412
0.832412
0.832412
0.832412
0.832412
0.832412
0.832412
0.832412
0.832412
0.832412
0.832412
0.832412
0.832412
0.832413
0.832413
0.832413
0.832413
0.832413
0.832413
0.832413
0.832413
0.832414
0.832414
0.832414
0.832414
0.832414
0.832414
0.832415
0.832415
0.832415
0.832415
0.832415
0.832416
0.832416
0.832416
0.832416
0.832416
0.832417
0.832417
0.832417
0.832417
0.832418
0.832418
0.832418
0.832419
0.832419
0.832419
0.832419
0.83242
0.83242
0.83242
0.832421
0.832421
0.832421
0.832422
0.832422
0.832422
0.832423
0.832423
0.832424
0.832424
0.832424
0.832425
0.832425
0.832426
0.832426
0.832426
0.832427
0.832427
0.832428
0.832428
0.832428
0.832429
0.832429
0.83243
0.83243
0.83243
0.832431
0.832432
0.832432
0.832432
0.832433
0.832433
0.832434
0.832435
0.832435
0.832435
0.832436
0.832437
0.832437
0.832437
0.832438
0.832439
0.832439
0.83244
0.83244
0.832441
0.832442
0.832442
0.832443
0.832443
0.832444
0.832445
0.832445
0.832446
0.832446
0.832447
0.832448
0.832449
0.832449
0.832449
0.83245
0.832451
0.832452
0.832453
0.832453
0.832454
0.832455
0.832455
0.832456
0.832456
0.832457
0.832458
0.832459
0.83246
0.83246
0.832461
0.832462
0.832463
0.832464
0.832464
0.832465
0.832466
0.832467
0.832468
0.832468
0.832469
0.83247
0.832471
0.832472
0.832472
0.832473
0.832474
0.832475
0.832476
0.832476
0.832477
0.832478
0.832479
0.83248
0.83248
0.832481
0.832483
0.832484
0.832485
0.832485
0.832486
0.832487
0.832488
0.83249
0.83249
0.832491
0.832492
0.832493
0.832494
0.832494
0.832496
0.832497
0.832498
0.832499
0.832499
0.832501
0.832502
0.832503
0.832504
0.832504
0.832506
0.832507
0.832508
0.83251
0.83251
0.832511
0.832512
0.832514
0.832515
0.832515
0.832516
0.832518
0.832519
0.83252
0.83252
0.832522
0.832523
0.832525
0.832526
0.832526
0.832528
0.832529
0.83253
0.832532
0.832532
0.832533
0.832535
0.832536
0.832538
0.832538
0.832539
0.832541
0.832542
0.832544
0.832544
0.832545
0.832547
0.832549
0.83255
0.83255
0.832552
0.832553
0.832555
0.832556
0.832556
0.832558
0.83256
0.832561
0.832563
0.832563
0.832565
0.832566
0.832568
0.83257
0.83257
0.832571
0.832573
0.832575
0.832576
0.832576
0.832578
0.83258
0.832582
0.832583
0.832583
0.832585
0.832587
0.832589
0.83259
0.83259
0.832592
0.832594
0.832596
0.832598
0.832598
0.8326
0.832601
0.832603
0.832605
0.832605
0.832607
0.832609
0.832611
0.832613
0.832613
0.832614
0.832616
0.832618
0.83262
0.83262
0.832622
0.832624
0.832626
0.832628
0.832628
0.83263
0.832632
0.832634
0.832636
0.832636
0.832638
0.83264
0.832642
0.832644
0.832644
0.832646
0.832648
0.83265
0.832652
0.832652
0.832654
0.832656
0.832659
0.832661
0.832661
0.832663
0.832665
0.832667
0.832669
0.832669
0.832671
0.832673
0.832676
0.832678
0.832678
0.83268
0.832682
0.832684
0.832687
0.832687
0.832689
0.832691
0.832693
0.832696
0.832696
0.832698
0.8327
0.832702
0.832705
0.832705
0.832707
0.832709
0.832712
0.832714
0.832714
0.832716
0.832719
0.832721
0.832723
0.832723
0.832726
0.832728
0.83273
0.832733
0.832733
0.832735
0.832738
0.83274
0.832742
0.832742
0.832745
0.832747
0.83275
0.832752
0.832752
0.832755
0.832757
0.83276
0.832762
0.832762
0.832765
0.832767
0.83277
0.832772
0.832772
0.832775
0.832777
0.83278
0.832782
0.832782
0.832785
0.832788
0.83279
0.832793
0.832793
0.832795
0.832798
0.832801
0.832803
0.832803
0.832806
0.832809
0.832811
0.832814
0.832814
0.832817
0.832819
0.832822
0.832825
0.832825
0.832827
0.83283
0.832833
0.832836
0.832836
0.832838
0.832841
0.832844
0.832847
0.832847
0.83285
0.832852
0.832855
0.832858
0.832858
0.832861
0.832864
0.832866
0.832869
0.832869
0.832872
0.832875
0.832878
0.832881
0.832881
0.832884
0.832887
0.83289
0.832892
0.832892
0.832895
0.832898
0.832901
0.832904
0.832904
0.832907
0.83291
0.832913
0.832916
0.832916
0.832919
0.832922
0.832925
0.832928
0.832928
0.832931
0.832934
0.832937
0.83294
0.83294
0.832944
0.832947
0.83295
0.832953
0.832953
0.832956
0.832959
0.832962
0.832965
0.832965
0.832968
0.832972
0.832975
0.832978
0.832978
0.832981
0.832984
0.832988
0.832991
0.832991
0.832994
0.832997
0.833
0.833004
0.833004
0.833007
0.83301
0.833013
0.833017
0.833017
0.83302
0.833023
0.833027
0.83303
0.83303
0.833033
0.833037
0.83304
0.833043
0.833043
0.833047
0.83305
0.833053
0.833057
0.833057
0.83306
0.833064
0.833067
0.83307
0.83307
0.833074
0.833077
0.833081
0.833084
0.833084
0.833088
0.833091
0.833095
0.833098
0.833098
0.833102
0.833105
0.833109
0.833112
0.833112
0.833116
0.833119
0.833123
0.833126
0.833126
0.83313
0.833134
0.833137
0.833141
0.833141
0.833144
0.833148
0.833152
0.833155
0.833155
0.833159
0.833163
0.833166
0.83317
0.83317
0.833174
0.833177
0.833181
0.833185
0.833185
0.833188
0.833192
0.833196
0.8332
0.8332
0.833203
0.833207
0.833211
0.833215
0.833215
0.833218
0.833222
0.833226
0.83323
0.83323
0.833234
0.833237
0.833241
0.833245
0.833245
0.833249
0.833253
0.833257
0.833261
0.833261
0.833265
0.833268
0.833272
0.833276
0.833276
0.83328
0.833284
0.833288
0.833292
0.833292
0.833296
0.8333
0.833304
0.833308
0.833308
0.833312
0.833316
0.83332
0.833324
0.833324
0.833328
0.833332
0.833336
0.83334
0.83334
0.833344
0.833348
0.833352
0.833356
0.833356
0.833361
0.833365
0.833369
0.833373
0.833373
0.833377
0.833381
0.833385
0.83339
0.83339
0.833394
0.833398
0.833402
0.833406
0.833406
0.833411
0.833415
0.833419
0.833423
0.833423
0.833427
0.833432
0.833436
0.83344
0.83344
0.833445
0.833449
0.833453
0.833457
0.833457
0.833462
0.833466
0.83347
0.833475
0.833475
0.833479
0.833483
0.833488
0.833492
0.833492
0.833497
0.833501
0.833505
0.83351
0.83351
0.833514
0.833519
0.833523
0.833528
0.833528
0.833532
0.833536
0.833541
0.833545
0.833545
0.83355
0.833554
0.833559
0.833563
0.833563
0.833568
0.833572
0.833577
0.833582
0.833582
0.833586
0.833591
0.833595
0.8336
0.8336
0.833604
0.833609
0.833614
0.833618
0.833618
0.833623
0.833628
0.833632
0.833637
0.833637
0.833642
0.833646
0.833651
0.833656
0.833656
0.83366
0.833665
0.83367
0.833675
0.833675
0.833679
0.833684
0.833689
0.833694
0.833694
0.833698
0.833703
0.833708
0.833713
0.833713
0.833717
0.833722
0.833727
0.833732
0.833732
0.833737
0.833742
0.833747
0.833751
0.833751
0.833756
0.833761
0.833766
0.833771
0.833771
0.833776
0.833781
0.833786
0.833791
0.833791
0.833796
0.833801
0.833806
0.833811
0.833811
0.833816
0.833821
0.833826
0.833831
0.833831
0.833836
0.833841
0.833846
0.833851
0.833851
0.833856
0.833861
0.833866
0.833871
0.833871
0.833876
0.833881
0.833886
0.833891
0.833891
0.833897
0.833902
0.833907
0.833912
0.833912
0.833917
0.833922
0.833927
0.833933
0.833933
0.833938
0.833943
0.833948
0.833953
0.833953
0.833959
0.833964
0.833969
0.833974
0.833974
0.83398
0.833985
0.83399
0.833996
0.833996
0.834001
0.834006
0.834011
0.834017
0.834017
0.834022
0.834028
0.834033
0.834038
0.834038
0.834044
0.834049
0.834054
0.83406
0.83406
0.834065
0.834071
0.834076
0.834081
0.834081
0.834087
0.834092
0.834098
0.834103
0.834103
0.834109
0.834114
0.83412
0.834125
0.834125
0.834131
0.834136
0.834142
0.834147
0.834147
0.834153
0.834158
0.834164
0.83417
0.83417
0.834175
0.834181
0.834186
0.834192
0.834192
0.834198
0.834203
0.834209
0.834214
0.834214
0.83422
0.834226
0.834231
0.834237
0.834237
0.834243
0.834248
0.834254
0.83426
0.83426
0.834266
0.834271
0.834277
0.834283
0.834283
0.834289
0.834294
0.8343
0.834306
0.834306
0.834312
0.834318
0.834323
0.834329
0.834329
0.834335
0.834341
0.834347
0.834352
0.834352
0.834358
0.834364
0.83437
0.834376
0.834376
0.834382
0.834388
0.834394
0.8344
0.8344
0.834406
0.834411
0.834417
0.834423
0.834423
0.834429
0.834435
0.834441
0.834447
0.834447
0.834453
0.834459
0.834465
0.834471
0.834471
0.834477
0.834483
0.83449
0.834496
0.834496
0.834502
0.834508
0.834514
0.83452
0.83452
0.834526
0.834532
0.834538
0.834544
0.834544
0.834551
0.834557
0.834563
0.834569
0.834569
0.834575
0.834581
0.834588
0.834594
0.834594
0.8346
0.834606
0.834612
0.834619
0.834619
0.834625
0.834631
0.834637
0.834644
0.834644
0.83465
0.834656
0.834663
0.834669
0.834669
0.834675
0.834681
0.834688
0.834694
0.834694
0.8347
0.834707
0.834713
0.83472
0.83472
0.834726
0.834732
0.834739
0.834745
0.834745
0.834752
0.834758
0.834764
0.834771
0.834771
0.834777
0.834784
0.83479
0.834797
0.834797
0.834803
0.83481
0.834816
0.834823
0.834823
0.834829
0.834836
0.834842
0.834849
0.834849
0.834855
0.834862
0.834869
0.834875
0.834875
0.834882
0.834888
0.834895
0.834902
0.834902
0.834908
0.834915
0.834921
0.834928
0.834928
0.834935
0.834941
0.834948
0.834955
0.834955
0.834962
0.834968
0.834975
0.834982
0.834982
0.834988
0.834995
0.835002
0.835009
0.835009
0.835015
0.835022
0.835029
0.835036
0.835036
0.835043
0.835049
0.835056
0.835063
0.835063
0.83507
0.835077
0.835084
0.83509
0.83509
0.835097
0.835104
0.835111
0.835118
0.835118
0.835125
0.835132
0.835139
0.835146
0.835146
0.835153
0.835159
0.835166
0.835173
0.835173
0.83518
0.835187
0.835194
0.835201
0.835201
0.835208
0.835215
0.835222
0.835229
0.835229
0.835236
0.835243
0.835251
0.835258
0.835258
0.835265
0.835272
0.835279
0.835286
0.835286
0.835293
0.8353
0.835307
0.835314
0.835314
0.835322
0.835329
0.835336
0.835343
0.835343
0.83535
0.835357
0.835365
0.835372
0.835372
0.835379
0.835386
0.835393
0.835401
0.835401
0.835408
0.835415
0.835423
0.83543
0.83543
0.835437
0.835444
0.835452
0.835459
0.835459
0.835466
0.835474
0.835481
0.835488
0.835488
0.835496
0.835503
0.83551
0.835518
0.835518
0.835525
0.835533
0.83554
0.835547
0.835547
0.835555
0.835562
0.83557
0.835577
0.835577
0.835584
0.835592
0.835599
0.835607
0.835607
0.835614
0.835622
0.835629
0.835637
0.835637
0.835644
0.835652
0.83566
0.835667
0.835667
0.835675
0.835682
0.83569
0.835697
0.835697
0.835705
0.835713
0.83572
0.835728
0.835728
0.835735
0.835743
0.835751
0.835758
0.835758
0.835766
0.835774
0.835781
0.835789
0.835789
0.835797
0.835804
0.835812
0.83582
0.83582
0.835828
0.835835
0.835843
0.835851
0.835851
0.835859
0.835866
0.835874
0.835882
0.835882
0.83589
0.835897
0.835905
0.835913
0.835913
0.835921
0.835929
0.835937
0.835944
0.835944
0.835952
0.83596
0.835968
0.835976
0.835976
0.835984
0.835992
0.836
0.836008
0.836008
0.836016
0.836024
0.836031
0.836039
0.836039
0.836047
0.836055
0.836063
0.836071
0.836071
0.836079
0.836087
0.836095
0.836103
0.836103
0.836111
0.836119
0.836128
0.836136
0.836136
0.836144
0.836152
0.83616
0.836168
0.836168
0.836176
0.836184
0.836192
0.8362
0.8362
0.836209
0.836217
0.836225
0.836233
0.836233
0.836241
0.836249
0.836258
0.836266
0.836266
0.836274
0.836282
0.83629
0.836299
0.836299
0.836307
0.836315
0.836323
0.836332
0.836332
0.83634
0.836348
0.836356
0.836365
0.836365
0.836373
0.836381
0.83639
0.836398
0.836398
0.836406
0.836415
0.836423
0.836431
0.836431
0.83644
0.836448
0.836457
0.836465
0.836465
0.836473
0.836482
0.83649
0.836499
0.836499
0.836507
0.836516
0.836524
0.836532
0.836532
0.836541
0.836549
0.836558
0.836566
0.836566
0.836575
0.836583
0.836592
0.836601
0.836601
0.836609
0.836618
0.836626
0.836635
0.836635
0.836643
0.836652
0.836661
0.836669
0.836669
0.836678
0.836686
0.836695
0.836704
0.836704
0.836712
0.836721
0.83673
0.836738
0.836738
0.836747
0.836756
0.836764
0.836773
0.836773
0.836782
0.83679
0.836799
0.836808
0.836808
0.836817
0.836825
0.836834
0.836843
0.836843
0.836852
0.836861
0.836869
0.836878
0.836878
0.836887
0.836896
0.836905
0.836913
0.836913
0.836922
0.836931
0.83694
0.836949
0.836949
0.836958
0.836967
0.836976
0.836984
0.836984
0.836993
0.837002
0.837011
0.83702
0.83702
0.837029
0.837038
0.837047
0.837056
0.837056
0.837065
0.837074
0.837083
0.837092
0.837092
0.837101
0.83711
0.837119
0.837128
0.837128
0.837137
0.837146
0.837155
0.837164
0.837164
0.837173
0.837183
0.837192
0.837201
0.837201
0.83721
0.837219
0.837228
0.837237
0.837237
0.837246
0.837256
0.837265
0.837274
0.837274
0.837283
0.837292
0.837302
0.837311
0.837311
0.83732
0.837329
0.837338
0.837348
0.837348
0.837357
0.837366
0.837375
0.837385
0.837385
0.837394
0.837403
0.837413
0.837422
0.837422
0.837431
0.837441
0.83745
0.837459
0.837459
0.837469
0.837478
0.837487
0.837497
0.837497
0.837506
0.837515
0.837525
0.837534
0.837534
0.837544
0.837553
0.837563
0.837572
0.837572
0.837581
0.837591
0.8376
0.83761
0.83761
0.837619
0.837629
0.837638
0.837648
0.837648
0.837657
0.837667
0.837676
0.837686
0.837686
0.837696
0.837705
0.837715
0.837724
0.837724
0.837734
0.837743
0.837753
0.837763
0.837763
0.837772
0.837782
0.837792
0.837801
0.837801
0.837811
0.83782
0.83783
0.83784
0.83784
0.83785
0.837859
0.837869
0.837879
0.837879
0.837888
0.837898
0.837908
0.837918
0.837918
0.837927
0.837937
0.837947
0.837957
0.837957
0.837966
0.837976
0.837986
0.837996
0.837996
0.838006
0.838015
0.838025
0.838035
0.838035
0.838045
0.838055
0.838065
0.838075
0.838075
0.838084
0.838094
0.838104
0.838114
0.838114
0.838124
0.838134
0.838144
0.838154
0.838154
0.838164
0.838174
0.838184
0.838194
0.838194
0.838204
0.838214
0.838224
0.838234
0.838234
0.838244
0.838254
0.838264
0.838274
0.838274
0.838284
0.838294
0.838304
0.838314
0.838314
0.838324
0.838334
0.838344
0.838355
0.838355
0.838365
0.838375
0.838385
0.838395
0.838395
0.838405
0.838415
0.838426
0.838436
0.838436
0.838446
0.838456
0.838466
0.838476
0.838476
0.838487
0.838497
0.838507
0.838517
0.838517
0.838528
0.838538
0.838548
0.838558
0.838558
0.838569
0.838579
0.838589
0.8386
0.8386
0.83861
0.83862
0.838631
0.838641
0.838641
0.838651
0.838662
0.838672
0.838682
0.838682
0.838693
0.838703
0.838714
0.838724
0.838724
0.838734
0.838745
0.838755
0.838766
0.838766
0.838776
0.838787
0.838797
0.838807
0.838807
0.838818
0.838828
0.838839
0.838849
0.838849
0.83886
0.83887
0.838881
0.838892
0.838892
0.838902
0.838913
0.838923
0.838934
0.838934
0.838944
0.838955
0.838966
0.838976
0.838976
0.838987
0.838997
0.839008
0.839019
0.839019
0.839029
0.83904
0.839051
0.839061
0.839061
0.839072
0.839083
0.839093
0.839104
0.839104
0.839115
0.839125
0.839136
0.839147
0.839147
0.839158
0.839168
0.839179
0.83919
0.83919
0.839201
0.839211
0.839222
0.839233
0.839233
0.839244
0.839255
0.839265
0.839276
0.839276
0.839287
0.839298
0.839309
0.83932
0.83932
0.839331
0.839341
0.839352
0.839363
0.839363
0.839374
0.839385
0.839396
0.839407
0.839407
0.839418
0.839429
0.83944
0.839451
0.839451
0.839462
0.839473
0.839484
0.839495
0.839495
0.839506
0.839517
0.839528
0.839539
0.839539
0.83955
0.839561
0.839572
0.839583
0.839583
0.839594
0.839605
0.839616
0.839627
0.839627
0.839638
0.839649
0.839661
0.839672
0.839672
0.839683
0.839694
0.839705
0.839716
0.839716
0.839727
0.839739
0.83975
0.839761
0.839761
0.839772
0.839783
0.839795
0.839806
0.839806
0.839817
0.839828
0.839839
0.839851
0.839851
0.839862
0.839873
0.839885
0.839896
0.839896
0.839907
0.839918
0.83993
0.839941
0.839941
0.839952
0.839964
0.839975
0.839986
0.839986
0.839998
0.840009
0.840021
0.840032
0.840032
0.840043
0.840055
0.840066
0.840078
0.840078
0.840089
0.8401
0.840112
0.840123
0.840123
0.840135
0.840146
0.840158
0.840169
0.840169
0.840181
0.840192
0.840204
0.840215
0.840215
0.840227
0.840238
0.84025
0.840261
0.840261
0.840273
0.840284
0.840296
0.840308
0.840308
0.840319
0.840331
0.840342
0.840354
0.840354
0.840366
0.840377
0.840389
0.8404
0.8404
0.840412
0.840424
0.840435
0.840447
0.840447
0.840459
0.84047
0.840482
0.840494
0.840494
0.840506
0.840517
0.840529
0.840541
0.840541
0.840552
0.840564
0.840576
0.840588
0.840588
0.8406
0.840611
0.840623
0.840635
0.840635
0.840647
0.840659
0.84067
0.840682
0.840682
0.840694
0.840706
0.840718
0.84073
0.84073
0.840741
0.840753
0.840765
0.840777
0.840777
0.840789
0.840801
0.840813
0.840825
0.840825
0.840837
0.840849
0.840861
0.840873
0.840873
0.840885
0.840897
0.840909
0.840921
0.840921
0.840933
0.840945
0.840957
0.840969
0.840969
0.840981
0.840993
0.841005
0.841017
0.841017
0.841029
0.841041
0.841053
0.841065
0.841065
0.841077
0.841089
0.841101
0.841113
0.841113
0.841126
0.841138
0.84115
0.841162
0.841162
0.841174
0.841186
0.841199
0.841211
0.841211
0.841223
0.841235
0.841247
0.84126
0.84126
0.841272
0.841284
0.841296
0.841308
0.841308
0.841321
0.841333
0.841345
0.841358
0.841358
0.84137
0.841382
0.841394
0.841407
0.841407
0.841419
0.841431
0.841444
0.841456
0.841456
0.841468
0.841481
0.841493
0.841506
0.841506
0.841518
0.84153
0.841543
0.841555
0.841555
0.841568
0.84158
0.841592
0.841605
0.841605
0.841617
0.84163
0.841642
0.841655
0.841655
0.841667
0.84168
0.841692
0.841705
0.841705
0.841717
0.84173
0.841742
0.841755
0.841755
0.841767
0.84178
0.841792
0.841805
0.841805
0.841817
0.84183
0.841843
0.841855
0.841855
0.841868
0.84188
0.841893
0.841906
0.841906
0.841918
0.841931
0.841944
0.841956
0.841956
0.841969
0.841982
0.841994
0.842007
0.842007
0.84202
0.842032
0.842045
0.842058
0.842058
0.84207
0.842083
0.842096
0.842109
0.842109
0.842121
0.842134
0.842147
0.84216
0.84216
0.842173
0.842185
0.842198
0.842211
0.842211
0.842224
0.842237
0.84225
0.842262
0.842262
0.842275
0.842288
0.842301
0.842314
0.842314
0.842327
0.84234
0.842352
0.842365
0.842365
0.842378
0.842391
0.842404
0.842417
0.842417
0.84243
0.842443
0.842456
0.842469
0.842469
0.842482
0.842495
0.842508
0.842521
0.842521
0.842534
0.842547
0.84256
0.842573
0.842573
0.842586
0.842599
0.842612
0.842625
0.842625
0.842638
0.842651
0.842664
0.842678
0.842678
0.842691
0.842704
0.842717
0.84273
0.84273
0.842743
0.842756
0.842769
0.842783
0.842783
0.842796
0.842809
0.842822
0.842835
0.842835
0.842848
0.842862
0.842875
0.842888
0.842888
0.842901
0.842915
0.842928
0.842941
0.842941
0.842954
0.842968
0.842981
0.842994
0.842994
0.843007
0.843021
0.843034
0.843047
0.843047
0.843061
0.843074
0.843087
0.843101
0.843101
0.843114
0.843127
0.843141
0.843154
0.843154
0.843167
0.843181
0.843194
0.843208
0.843208
0.843221
0.843234
0.843248
0.843261
0.843261
0.843275
0.843288
0.843302
0.843315
0.843315
0.843329
0.843342
0.843356
0.843369
0.843369
0.843383
0.843396
0.84341
0.843423
0.843423
0.843437
0.84345
0.843464
0.843477
0.843477
0.843491
0.843505
0.843518
0.843532
0.843532
0.843545
0.843559
0.843572
0.843586
0.843586
0.8436
0.843613
0.843627
0.843641
0.843641
0.843654
0.843668
0.843682
0.843695
0.843695
0.843709
0.843723
0.843736
0.84375
0.84375
0.843764
0.843778
0.843791
0.843805
0.843805
0.843819
0.843833
0.843846
0.84386
0.84386
0.843874
0.843888
0.843901
0.843915
0.843915
0.843929
0.843943
0.843957
0.843971
0.843971
0.843984
0.843998
0.844012
0.844026
0.844026
0.84404
0.844054
0.844068
0.844082
0.844082
0.844095
0.844109
0.844123
0.844137
0.844137
0.844151
0.844165
0.844179
0.844193
0.844193
0.844207
0.844221
0.844235
0.844249
0.844249
0.844263
0.844277
0.844291
0.844305
0.844305
0.844319
0.844333
0.844347
0.844361
0.844361
0.844375
0.844389
0.844403
0.844417
0.844417
0.844431
0.844445
0.84446
0.844474
0.844474
0.844488
0.844502
0.844516
0.84453
0.84453
0.844544
0.844558
0.844573
0.844587
0.844587
0.844601
0.844615
0.844629
0.844644
0.844644
0.844658
0.844672
0.844686
0.8447
0.8447
0.844715
0.844729
0.844743
0.844757
0.844757
0.844772
0.844786
0.8448
0.844815
0.844815
0.844829
0.844843
0.844857
0.844872
0.844872
0.844886
0.8449
0.844915
0.844929
0.844929
0.844943
0.844958
0.844972
0.844987
0.844987
0.845001
0.845015
0.84503
0.845044
0.845044
0.845059
0.845073
0.845087
0.845102
0.845102
0.845116
0.845131
0.845145
0.84516
0.84516
0.845174
0.845189
0.845203
0.845218
0.845218
0.845232
0.845247
0.845261
0.845276
0.845276
0.84529
0.845305
0.845319
0.845334
0.845334
0.845348
0.845363
0.845378
0.845392
0.845392
0.845407
0.845421
0.845436
0.845451
0.845451
0.845465
0.84548
0.845495
0.845509
0.845509
0.845524
0.845539
0.845553
0.845568
0.845568
0.845583
0.845597
0.845612
0.845627
0.845627
0.845641
0.845656
0.845671
0.845686
0.845686
0.8457
0.845715
0.84573
0.845745
0.845745
0.845759
0.845774
0.845789
0.845804
0.845804
0.845819
0.845833
0.845848
0.845863
0.845863
0.845878
0.845893
0.845908
0.845922
0.845922
0.845937
0.845952
0.845967
0.845982
0.845982
0.845997
0.846012
0.846027
0.846042
0.846042
0.846056
0.846071
0.846086
0.846101
0.846101
0.846116
0.846131
0.846146
0.846161
0.846161
0.846176
0.846191
0.846206
0.846221
0.846221
0.846236
0.846251
0.846266
0.846281
0.846281
0.846296
0.846311
0.846326
0.846341
0.846341
0.846356
0.846372
0.846387
0.846402
0.846402
0.846417
0.846432
0.846447
0.846462
0.846462
0.846477
0.846492
0.846508
0.846523
0.846523
0.846538
0.846553
0.846568
0.846583
0.846583
0.846599
0.846614
0.846629
0.846644
0.846644
0.846659
0.846675
0.84669
0.846705
0.846705
0.84672
0.846736
0.846751
0.846766
0.846766
0.846781
0.846797
0.846812
0.846827
0.846827
0.846843
0.846858
0.846873
0.846889
0.846889
0.846904
0.846919
0.846935
0.84695
0.84695
0.846965
0.846981
0.846996
0.847011
0.847011
0.847027
0.847042
0.847058
0.847073
0.847073
0.847088
0.847104
0.847119
0.847135
0.847135
0.84715
0.847166
0.847181
0.847197
0.847197
0.847212
0.847228
0.847243
0.847259
0.847259
0.847274
0.84729
0.847305
0.847321
0.847321
0.847336
0.847352
0.847367
0.847383
0.847383
0.847398
0.847414
0.84743
0.847445
0.847445
0.847461
0.847476
0.847492
0.847508
0.847508
0.847523
0.847539
0.847555
0.84757
0.84757
0.847586
0.847601
0.847617
0.847633
0.847633
0.847649
0.847664
0.84768
0.847696
0.847696
0.847711
0.847727
0.847743
0.847759
0.847759
0.847774
0.84779
0.847806
0.847822
0.847822
0.847837
0.847853
0.847869
0.847885
0.847885
0.8479
0.847916
0.847932
0.847948
0.847948
0.847964
0.84798
0.847995
0.848011
0.848011
0.848027
0.848043
0.848059
0.848075
0.848075
0.848091
0.848106
0.848122
0.848138
0.848138
0.848154
0.84817
0.848186
0.848202
0.848202
0.848218
0.848234
0.84825
0.848266
0.848266
0.848282
0.848298
0.848314
0.84833
0.84833
0.848346
0.848362
0.848378
0.848394
0.848394
0.84841
0.848426
0.848442
0.848458
0.848458
0.848474
0.84849
0.848506
0.848522
0.848522
0.848538
0.848554
0.84857
0.848587
0.848587
0.848603
0.848619
0.848635
0.848651
0.848651
0.848667
0.848683
0.848699
0.848716
0.848716
0.848732
0.848748
0.848764
0.84878
0.84878
0.848797
0.848813
0.848829
0.848845
0.848845
0.848861
0.848878
0.848894
0.84891
0.84891
0.848926
0.848943
0.848959
0.848975
0.848975
0.848992
0.849008
0.849024
0.84904
0.84904
0.849057
0.849073
0.849089
0.849106
0.849106
0.849122
0.849138
0.849155
0.849171
0.849171
0.849187
0.849204
0.84922
0.849237
0.849237
0.849253
0.849269
0.849286
0.849302
0.849302
0.849319
0.849335
0.849352
0.849368
0.849368
0.849384
0.849401
0.849417
0.849434
0.849434
0.84945
0.849467
0.849483
0.8495
0.8495
0.849516
0.849533
0.849549
0.849566
0.849566
0.849582
0.849599
0.849616
0.849632
0.849632
0.849649
0.849665
0.849682
0.849698
0.849698
0.849715
0.849732
0.849748
0.849765
0.849765
0.849781
0.849798
0.849815
0.849831
0.849831
0.849848
0.849865
0.849881
0.849898
0.849898
0.849915
0.849931
0.849948
0.849965
0.849965
0.849981
0.849998
0.850015
0.850032
0.850032
0.850048
0.850065
0.850082
0.850099
0.850099
0.850115
0.850132
0.850149
0.850166
0.850166
0.850182
0.850199
0.850216
0.850233
0.850233
0.85025
0.850266
0.850283
0.8503
0.8503
0.850317
0.850334
0.850351
0.850368
0.850368
0.850384
0.850401
0.850418
0.850435
0.850435
0.850452
0.850469
0.850486
0.850503
0.850503
0.85052
0.850537
0.850554
0.85057
0.85057
0.850587
0.850604
0.850621
0.850638
0.850638
0.850655
0.850672
0.850689
0.850706
0.850706
0.850723
0.85074
0.850757
0.850774
0.850774
0.850791
0.850808
0.850825
0.850843
0.850843
0.85086
0.850877
0.850894
0.850911
0.850911
0.850928
0.850945
0.850962
0.850979
0.850979
0.850996
0.851013
0.851031
0.851048
0.851048
0.851065
0.851082
0.851099
0.851116
0.851116
0.851134
0.851151
0.851168
0.851185
0.851185
0.851202
0.85122
0.851237
0.851254
0.851254
0.851271
0.851288
0.851306
0.851323
0.851323
0.85134
0.851357
0.851375
0.851392
0.851392
0.851409
0.851427
0.851444
0.851461
0.851461
0.851478
0.851496
0.851513
0.85153
0.85153
0.851548
0.851565
0.851582
0.8516
0.8516
0.851617
0.851635
0.851652
0.851669
0.851669
0.851687
0.851704
0.851722
0.851739
0.851739
0.851756
0.851774
0.851791
0.851809
0.851809
0.851826
0.851844
0.851861
0.851879
0.851879
0.851896
0.851913
0.851931
0.851948
0.851948
0.851966
0.851983
0.852001
0.852018
0.852018
0.852036
0.852054
0.852071
0.852089
0.852089
0.852106
0.852124
0.852141
0.852159
0.852159
0.852176
0.852194
0.852212
0.852229
0.852229
0.852247
0.852264
0.852282
0.8523
0.8523
0.852317
0.852335
0.852353
0.85237
0.85237
0.852388
0.852406
0.852423
0.852441
0.852441
0.852459
0.852476
0.852494
0.852512
0.852512
0.85253
0.852547
0.852565
0.852583
0.852583
0.8526
0.852618
0.852636
0.852654
0.852654
0.852671
0.852689
0.852707
0.852725
0.852725
0.852743
0.85276
0.852778
0.852796
0.852796
0.852814
0.852832
0.85285
0.852867
0.852867
0.852885
0.852903
0.852921
0.852939
0.852939
0.852957
0.852975
0.852992
0.85301
0.85301
0.853028
0.853046
0.853064
0.853082
0.853082
0.8531
0.853118
0.853136
0.853154
0.853154
0.853172
0.85319
0.853208
0.853226
0.853226
0.853244
0.853262
0.85328
0.853298
0.853298
0.853316
0.853334
0.853352
0.85337
0.85337
0.853388
0.853406
0.853424
0.853442
0.853442
0.85346
0.853478
0.853496
0.853514
0.853514
0.853532
0.85355
0.853568
0.853586
0.853586
0.853605
0.853623
0.853641
0.853659
0.853659
0.853677
0.853695
0.853713
0.853732
0.853732
0.85375
0.853768
0.853786
0.853804
0.853804
0.853822
0.853841
0.853859
0.853877
0.853877
0.853895
0.853914
0.853932
0.85395
0.85395
0.853968
0.853986
0.854005
0.854023
0.854023
0.854041
0.85406
0.854078
0.854096
0.854096
0.854114
0.854133
0.854151
0.854169
0.854169
0.854188
0.854206
0.854224
0.854243
0.854243
0.854261
0.854279
0.854298
0.854316
0.854316
0.854334
0.854353
0.854371
0.85439
0.85439
0.854408
0.854426
0.854445
0.854463
0.854463
0.854482
0.8545
0.854519
0.854537
0.854537
0.854555
0.854574
0.854592
0.854611
0.854611
0.854629
0.854648
0.854666
0.854685
0.854685
0.854703
0.854722
0.85474
0.854759
0.854759
0.854777
0.854796
0.854815
0.854833
0.854833
0.854852
0.85487
0.854889
0.854907
0.854907
0.854926
0.854944
0.854963
0.854982
0.854982
0.855
0.855019
0.855038
0.855056
0.855056
0.855075
0.855093
0.855112
0.855131
0.855131
0.855149
0.855168
0.855187
0.855205
0.855205
0.855224
0.855243
0.855261
0.85528
0.85528
0.855299
0.855318
0.855336
0.855355
0.855355
0.855374
0.855393
0.855411
0.85543
0.85543
0.855449
0.855468
0.855486
0.855505
0.855505
0.855524
0.855543
0.855561
0.85558
0.85558
0.855599
0.855618
0.855637
0.855656
0.855656
0.855674
0.855693
0.855712
0.855731
0.855731
0.85575
0.855769
0.855788
0.855806
0.855806
0.855825
0.855844
0.855863
0.855882
0.855882
0.855901
0.85592
0.855939
0.855958
0.855958
0.855977
0.855996
0.856015
0.856034
0.856034
0.856053
0.856071
0.85609
0.856109
0.856109
0.856128
0.856147
0.856166
0.856185
0.856185
0.856204
0.856223
0.856242
0.856262
0.856262
0.856281
0.8563
0.856319
0.856338
0.856338
0.856357
0.856376
0.856395
0.856414
0.856414
0.856433
0.856452
0.856471
0.85649
0.85649
0.85651
0.856529
0.856548
0.856567
0.856567
0.856586
0.856605
0.856624
0.856644
0.856644
0.856663
0.856682
0.856701
0.85672
0.85672
0.856739
0.856759
0.856778
0.856797
0.856797
0.856816
0.856835
0.856855
0.856874
0.856874
0.856893
0.856912
0.856932
0.856951
0.856951
0.85697
0.856989
0.857009
0.857028
0.857028
0.857047
0.857067
0.857086
0.857105
0.857105
0.857125
0.857144
0.857163
0.857183
0.857183
0.857202
0.857221
0.857241
0.85726
0.85726
0.857279
0.857299
0.857318
0.857337
0.857337
0.857357
0.857376
0.857396
0.857415
0.857415
0.857434
0.857454
0.857473
0.857493
0.857493
0.857512
0.857532
0.857551
0.85757
0.85757
0.85759
0.857609
0.857629
0.857648
0.857648
0.857668
0.857687
0.857707
0.857726
0.857726
0.857746
0.857765
0.857785
0.857804
0.857804
0.857824
0.857844
0.857863
0.857883
0.857883
0.857902
0.857922
0.857941
0.857961
0.857961
0.85798
0.858
0.85802
0.858039
0.858039
0.858059
0.858079
0.858098
0.858118
0.858118
0.858137
0.858157
0.858177
0.858196
0.858196
0.858216
0.858236
0.858255
0.858275
0.858275
0.858295
0.858314
0.858334
0.858354
0.858354
0.858373
0.858393
0.858413
0.858433
0.858433
0.858452
0.858472
0.858492
0.858512
0.858512
0.858531
0.858551
0.858571
0.858591
0.858591
0.85861
0.85863
0.85865
0.85867
0.85867
0.85869
0.858709
0.858729
0.858749
0.858749
0.858769
0.858789
0.858809
0.858828
0.858828
0.858848
0.858868
0.858888
0.858908
0.858908
0.858928
0.858948
0.858968
0.858987
0.858987
0.859007
0.859027
0.859047
0.859067
0.859067
0.859087
0.859107
0.859127
0.859147
0.859147
0.859167
0.859187
0.859207
0.859227
0.859227
0.859247
0.859267
0.859287
0.859307
0.859307
0.859327
0.859347
0.859367
0.859387
0.859387
0.859407
0.859427
0.859447
0.859467
0.859467
0.859487
0.859507
0.859527
0.859547
0.859547
0.859567
0.859587
0.859607
0.859627
0.859627
0.859647
0.859667
0.859688
0.859708
0.859708
0.859728
0.859748
0.859768
0.859788
0.859788
0.859808
0.859828
0.859849
0.859869
0.859869
0.859889
0.859909
0.859929
0.859949
0.859949
0.85997
0.85999
0.86001
0.86003
0.86003
0.86005
0.860071
0.860091
0.860111
0.860111
0.860131
0.860152
0.860172
0.860192
0.860192
0.860212
0.860233
0.860253
0.860273
0.860273
0.860293
0.860314
0.860334
0.860354
0.860354
0.860375
0.860395
0.860415
0.860436
0.860436
0.860456
0.860476
0.860497
0.860517
0.860517
0.860537
0.860558
0.860578
0.860598
0.860598
0.860619
0.860639
0.860659
0.86068
0.86068
0.8607
0.860721
0.860741
0.860761
0.860761
0.860782
0.860802
0.860823
0.860843
0.860843
0.860864
0.860884
0.860905
0.860925
0.860925
0.860945
0.860966
0.860986
0.861007
0.861007
0.861027
0.861048
0.861068
0.861089
0.861089
0.861109
0.86113
0.86115
0.861171
0.861171
0.861192
0.861212
0.861233
0.861253
0.861253
0.861274
0.861294
0.861315
0.861335
0.861335
0.861356
0.861377
0.861397
0.861418
0.861418
0.861438
0.861459
0.86148
0.8615
0.8615
0.861521
0.861542
0.861562
0.861583
0.861583
0.861604
0.861624
0.861645
0.861666
0.861666
0.861686
0.861707
0.861728
0.861748
0.861748
0.861769
0.86179
0.86181
0.861831
0.861831
0.861852
0.861873
0.861893
0.861914
0.861914
0.861935
0.861956
0.861976
0.861997
0.861997
0.862018
0.862039
0.862059
0.86208
0.86208
0.862101
0.862122
0.862143
0.862163
0.862163
0.862184
0.862205
0.862226
0.862247
0.862247
0.862267
0.862288
0.862309
0.86233
0.86233
0.862351
0.862372