<?xml version="1.0"?>
<VTKFile type="UnstructuredGrid" version="0.1" byte_order="LittleEndian">
<UnstructuredGrid>
<Piece NumberOfPoints="5000" NumberOfCells="4000">
<PointData Scalars="Reaction 0">
<DataArray type="Float32" Name="Reaction 0" format="ascii">
0.873911
0.873911
0.873911
0.873911
0.873911
0.873911
0.873911
0.873911
0.873911
0.873911
0.873911
0.873911
0.873911
0.873911
0.873911
0.873911
0.873912
0.873912
0.873912
0.873912
0.873912
0.873912
0.873912
0.873912
0.873912
0.873912
0.873912
0.873913
0.873913
0.873913
0.873913
0.873913
0.873913
0.873913
0.873914
0.873914
0.873914
0.873914
0.873914
0.873914
0.873914
0.873915
0.873915
0.873915
0.873915
0.873915
0.873916
0.873916
0.873916
0.873916
0.873916
0.873917
0.873917
0.873917
0.873918
0.873918
0.873918
0.873918
0.873919
0.873919
0.873919
0.873919
0.87392
0.87392
0.87392
0.87392
0.873921
0.873921
0.873921
0.873922
0.873922
0.873922
0.873923
0.873923
0.873923
0.873923
0.873924
0.873924
0.873925
0.873925
0.873925
0.873926
0.873926
0.873926
0.873927
0.873927
0.873927
0.873928
0.873928
0.873929
0.873929
0.873929
0.87393
0.87393
0.873931
0.873931
0.873931
0.873932
0.873932
0.873933
0.873933
0.873934
0.873934
0.873935
0.873935
0.873935
0.873936
0.873936
0.873937
0.873938
0.873938
0.873938
0.873939
0.873939
0.87394
0.87394
0.873941
0.873941
0.873942
0.873943
0.873943
0.873943
0.873944
0.873945
0.873945
0.873945
0.873946
0.873947
0.873947
0.873948
0.873948
0.873949
0.87395
0.87395
0.873951
0.873951
0.873952
0.873953
0.873953
0.873954
0.873954
0.873955
0.873956
0.873956
0.873957
0.873957
0.873958
0.873959
0.87396
0.87396
0.87396
0.873961
0.873962
0.873963
0.873964
0.873964
0.873965
0.873966
0.873966
0.873967
0.873967
0.873968
0.873969
0.87397
0.873971
0.873971
0.873972
0.873973
0.873974
0.873975
0.873975
0.873976
0.873976
0.873977
0.873978
0.873978
0.873979
0.87398
0.873981
0.873982
0.873982
0.873983
0.873984
0.873985
0.873986
0.873986
0.873987
0.873988
0.873989
0.87399
0.87399
0.873991
0.873993
0.873994
0.873995
0.873995
0.873996
0.873997
0.873998
0.873999
0.873999
0.874
0.874001
0.874002
0.874003
0.874003
0.874005
0.874006
0.874007
0.874008
0.874008
0.874009
0.87401
0.874012
0.874013
0.874013
0.874014
0.874015
0.874016
0.874017
0.874017
0.874019
0.87402
0.874021
0.874022
0.874022
0.874024
0.874025
0.874026
0.874027
0.874027
0.874029
0.87403
0.874031
0.874032
0.874032
0.874034
0.874035
0.874036
0.874038
0.874038
0.874039
0.87404
0.874042
0.874043
0.874043
0.874044
0.874046
0.874047
0.874048
0.874048
0.87405
0.874051
0.874053
0.874054
0.874054
0.874055
0.874057
0.874058
0.87406
0.87406
0.874061
0.874063
0.874064
0.874065
0.874065
0.874067
0.874068
0.87407
0.874071
0.874071
0.874073
0.874074
0.874076
0.874077
0.874077
0.874079
0.87408
0.874082
0.874083
0.874083
0.874085
0.874087
0.874088
0.87409
0.87409
0.874091
0.874093
0.874094
0.874096
0.874096
0.874098
0.874099
0.874101
0.874102
0.874102
0.874104
0.874106
0.874107
0.874109
0.874109
0.874111
0.874112
0.874114
0.874116
0.874116
0.874117
0.874119
0.874121
0.874122
0.874122
0.874124
0.874126
0.874127
0.874129
0.874129
0.874131
0.874133
0.874134
0.874136
0.874136
0.874138
0.87414
0.874142
0.874143
0.874143
0.874145
0.874147
0.874149
0.87415
0.87415
0.874152
0.874154
0.874156
0.874158
0.874158
0.87416
0.874161
0.874163
0.874165
0.874165
0.874167
0.874169
0.874171
0.874173
0.874173
0.874175
0.874177
0.874178
0.87418
0.87418
0.874182
0.874184
0.874186
0.874188
0.874188
0.87419
0.874192
0.874194
0.874196
0.874196
0.874198
0.8742
0.874202
0.874204
0.874204
0.874206
0.874208
0.87421
0.874212
0.874212
0.874214
0.874216
0.874218
0.87422
0.87422
0.874222
0.874224
0.874226
0.874228
0.874228
0.874231
0.874233
0.874235
0.874237
0.874237
0.874239
0.874241
0.874243
0.874245
0.874245
0.874248
0.87425
0.874252
0.874254
0.874254
0.874256
0.874258
0.874261
0.874263
0.874263
0.874265
0.874267
0.874269
0.874272
0.874272
0.874274
0.874276
0.874278
0.874281
0.874281
0.874283
0.874285
0.874287
0.87429
0.87429
0.874292
0.874294
0.874296
0.874299
0.874299
0.874301
0.874303
0.874306
0.874308
0.874308
0.87431
0.874313
0.874315
0.874317
0.874317
0.87432
0.874322
0.874325
0.874327
0.874327
0.874329
0.874332
0.874334
0.874337
0.874337
0.874339
0.874341
0.874344
0.874346
0.874346
0.874349
0.874351
0.874354
0.874356
0.874356
0.874359
0.874361
0.874363
0.874366
0.874366
0.874368
0.874371
0.874374
0.874376
0.874376
0.874379
0.874381
0.874384
0.874386
0.874386
0.874389
0.874391
0.874394
0.874396
0.874396
0.874399
0.874402
0.874404
0.874407
0.874407
0.874409
0.874412
0.874415
0.874417
0.874417
0.87442
0.874423
0.874425
0.874428
0.874428
0.874431
0.874433
0.874436
0.874439
0.874439
0.874441
0.874444
0.874447
0.874449
0.874449
0.874452
0.874455
0.874458
0.87446
0.87446
0.874463
0.874466
0.874469
0.874471
0.874471
0.874474
0.874477
0.87448
0.874482
0.874482
0.874485
0.874488
0.874491
0.874494
0.874494
0.874496
0.874499
0.874502
0.874505
0.874505
0.874508
0.874511
0.874514
0.874516
0.874516
0.874519
0.874522
0.874525
0.874528
0.874528
0.874531
0.874534
0.874537
0.87454
0.87454
0.874543
0.874546
0.874549
0.874551
0.874551
0.874554
0.874557
0.87456
0.874563
0.874563
0.874566
0.874569
0.874572
0.874575
0.874575
0.874578
0.874581
0.874584
0.874588
0.874588
0.874591
0.874594
0.874597
0.8746
0.8746
0.874603
0.874606
0.874609
0.874612
0.874612
0.874615
0.874618
0.874621
0.874624
0.874624
0.874628
0.874631
0.874634
0.874637
0.874637
0.87464
0.874643
0.874647
0.87465
0.87465
0.874653
0.874656
0.874659
0.874662
0.874662
0.874666
0.874669
0.874672
0.874675
0.874675
0.874679
0.874682
0.874685
0.874688
0.874688
0.874692
0.874695
0.874698
0.874701
0.874701
0.874705
0.874708
0.874711
0.874715
0.874715
0.874718
0.874721
0.874725
0.874728
0.874728
0.874731
0.874735
0.874738
0.874741
0.874741
0.874745
0.874748
0.874751
0.874755
0.874755
0.874758
0.874762
0.874765
0.874768
0.874768
0.874772
0.874775
0.874779
0.874782
0.874782
0.874786
0.874789
0.874793
0.874796
0.874796
0.874799
0.874803
0.874806
0.87481
0.87481
0.874813
0.874817
0.87482
0.874824
0.874824
0.874828
0.874831
0.874835
0.874838
0.874838
0.874842
0.874845
0.874849
0.874852
0.874852
0.874856
0.87486
0.874863
0.874867
0.874867
0.87487
0.874874
0.874878
0.874881
0.874881
0.874885
0.874889
0.874892
0.874896
0.874896
0.8749
0.874903
0.874907
0.874911
0.874911
0.874914
0.874918
0.874922
0.874925
0.874925
0.874929
0.874933
0.874937
0.87494
0.87494
0.874944
0.874948
0.874952
0.874955
0.874955
0.874959
0.874963
0.874967
0.874971
0.874971
0.874974
0.874978
0.874982
0.874986
0.874986
0.87499
0.874993
0.874997
0.875001
0.875001
0.875005
0.875009
0.875013
0.875017
0.875017
0.875021
0.875024
0.875028
0.875032
0.875032
0.875036
0.87504
0.875044
0.875048
0.875048
0.875052
0.875056
0.87506
0.875064
0.875064
0.875068
0.875072
0.875076
0.87508
0.87508
0.875084
0.875088
0.875092
0.875096
0.875096
0.8751
0.875104
0.875108
0.875112
0.875112
0.875116
0.87512
0.875124
0.875128
0.875128
0.875132
0.875136
0.87514
0.875144
0.875144
0.875148
0.875152
0.875157
0.875161
0.875161
0.875165
0.875169
0.875173
0.875177
0.875177
0.875181
0.875185
0.87519
0.875194
0.875194
0.875198
0.875202
0.875206
0.875211
0.875211
0.875215
0.875219
0.875223
0.875227
0.875227
0.875232
0.875236
0.87524
0.875244
0.875244
0.875249
0.875253
0.875257
0.875261
0.875261
0.875266
0.87527
0.875274
0.875279
0.875279
0.875283
0.875287
0.875292
0.875296
0.875296
0.8753
0.875305
0.875309
0.875313
0.875313
0.875318
0.875322
0.875326
0.875331
0.875331
0.875335
0.87534
0.875344
0.875348
0.875348
0.875353
0.875357
0.875362
0.875366
0.875366
0.875371
0.875375
0.87538
0.875384
0.875384
0.875388
0.875393
0.875397
0.875402
0.875402
0.875406
0.875411
0.875415
0.87542
0.87542
0.875425
0.875429
0.875434
0.875438
0.875438
0.875443
0.875447
0.875452
0.875456
0.875456
0.875461
0.875466
0.87547
0.875475
0.875475
0.875479
0.875484
0.875489
0.875493
0.875493
0.875498
0.875502
0.875507
0.875512
0.875512
0.875516
0.875521
0.875526
0.87553
0.87553
0.875535
0.87554
0.875545
0.875549
0.875549
0.875554
0.875559
0.875563
0.875568
0.875568
0.875573
0.875578
0.875582
0.875587
0.875587
0.875592
0.875597
0.875601
0.875606
0.875606
0.875611
0.875616
0.875621
0.875625
0.875625
0.87563
0.875635
0.87564
0.875645
0.875645
0.87565
0.875654
0.875659
0.875664
0.875664
0.875669
0.875674
0.875679
0.875684
0.875684
0.875689
0.875694
0.875698
0.875703
0.875703
0.875708
0.875713
0.875718
0.875723
0.875723
0.875728
0.875733
0.875738
0.875743
0.875743
0.875748
0.875753
0.875758
0.875763
0.875763
0.875768
0.875773
0.875778
0.875783
0.875783
0.875788
0.875793
0.875798
0.875803
0.875803
0.875808
0.875813
0.875818
0.875823
0.875823
0.875829
0.875834
0.875839
0.875844
0.875844
0.875849
0.875854
0.875859
0.875864
0.875864
0.875869
0.875875
0.87588
0.875885
0.875885
0.87589
0.875895
0.8759
0.875906
0.875906
0.875911
0.875916
0.875921
0.875926
0.875926
0.875932
0.875937
0.875942
0.875947
0.875947
0.875953
0.875958
0.875963
0.875968
0.875968
0.875974
0.875979
0.875984
0.875989
0.875989
0.875995
0.876
0.876005
0.876011
0.876011
0.876016
0.876021
0.876027
0.876032
0.876032
0.876037
0.876043
0.876048
0.876053
0.876053
0.876059
0.876064
0.87607
0.876075
0.876075
0.87608
0.876086
0.876091
0.876097
0.876097
0.876102
0.876108
0.876113
0.876118
0.876118
0.876124
0.876129
0.876135
0.87614
0.87614
0.876146
0.876151
0.876157
0.876162
0.876162
0.876168
0.876173
0.876179
0.876184
0.876184
0.87619
0.876195
0.876201
0.876207
0.876207
0.876212
0.876218
0.876223
0.876229
0.876229
0.876234
0.87624
0.876246
0.876251
0.876251
0.876257
0.876262
0.876268
0.876274
0.876274
0.876279
0.876285
0.876291
0.876296
0.876296
0.876302
0.876308
0.876313
0.876319
0.876319
0.876325
0.87633
0.876336
0.876342
0.876342
0.876348
0.876353
0.876359
0.876365
0.876365
0.87637
0.876376
0.876382
0.876388
0.876388
0.876394
0.876399
0.876405
0.876411
0.876411
0.876417
0.876422
0.876428
0.876434
0.876434
0.87644
0.876446
0.876452
0.876457
0.876457
0.876463
0.876469
0.876475
0.876481
0.876481
0.876487
0.876493
0.876499
0.876504
0.876504
0.87651
0.876516
0.876522
0.876528
0.876528
0.876534
0.87654
0.876546
0.876552
0.876552
0.876558
0.876564
0.87657
0.876576
0.876576
0.876582
0.876588
0.876594
0.8766
0.8766
0.876606
0.876612
0.876618
0.876624
0.876624
0.87663
0.876636
0.876642
0.876648
0.876648
0.876654
0.87666
0.876666
0.876672
0.876672
0.876678
0.876684
0.87669
0.876697
0.876697
0.876703
0.876709
0.876715
0.876721
0.876721
0.876727
0.876733
0.876739
0.876746
0.876746
0.876752
0.876758
0.876764
0.87677
0.87677
0.876776
0.876783
0.876789
0.876795
0.876795
0.876801
0.876808
0.876814
0.87682
0.87682
0.876826
0.876832
0.876839
0.876845
0.876845
0.876851
0.876858
0.876864
0.87687
0.87687
0.876876
0.876883
0.876889
0.876895
0.876895
0.876902
0.876908
0.876914
0.876921
0.876921
0.876927
0.876933
0.87694
0.876946
0.876946
0.876952
0.876959
0.876965
0.876972
0.876972
0.876978
0.876984
0.876991
0.876997
0.876997
0.877004
0.87701
0.877016
0.877023
0.877023
0.877029
0.877036
0.877042
0.877049
0.877049
0.877055
0.877062
0.877068
0.877075
0.877075
0.877081
0.877088
0.877094
0.877101
0.877101
0.877107
0.877114
0.87712
0.877127
0.877127
0.877133
0.87714
0.877147
0.877153
0.877153
0.87716
0.877166
0.877173
0.877179
0.877179
0.877186
0.877193
0.877199
0.877206
0.877206
0.877213
0.877219
0.877226
0.877232
0.877232
0.877239
0.877246
0.877252
0.877259
0.877259
0.877266
0.877272
0.877279
0.877286
0.877286
0.877293
0.877299
0.877306
0.877313
0.877313
0.877319
0.877326
0.877333
0.87734
0.87734
0.877346
0.877353
0.87736
0.877367
0.877367
0.877374
0.87738
0.877387
0.877394
0.877394
0.877401
0.877408
0.877414
0.877421
0.877421
0.877428
0.877435
0.877442
0.877449
0.877449
0.877455
0.877462
0.877469
0.877476
0.877476
0.877483
0.87749
0.877497
0.877504
0.877504
0.877511
0.877518
0.877524
0.877531
0.877531
0.877538
0.877545
0.877552
0.877559
0.877559
0.877566
0.877573
0.87758
0.877587
0.877587
0.877594
0.877601
0.877608
0.877615
0.877615
0.877622
0.877629
0.877636
0.877643
0.877643
0.87765
0.877657
0.877664
0.877671
0.877671
0.877678
0.877686
0.877693
0.8777
0.8777
0.877707
0.877714
0.877721
0.877728
0.877728
0.877735
0.877742
0.877749
0.877757
0.877757
0.877764
0.877771
0.877778
0.877785
0.877785
0.877792
0.8778
0.877807
0.877814
0.877814
0.877821
0.877828
0.877836
0.877843
0.877843
0.87785
0.877857
0.877864
0.877872
0.877872
0.877879
0.877886
0.877893
0.877901
0.877901
0.877908
0.877915
0.877922
0.87793
0.87793
0.877937
0.877944
0.877952
0.877959
0.877959
0.877966
0.877974
0.877981
0.877988
0.877988
0.877996
0.878003
0.87801
0.878018
0.878018
0.878025
0.878032
0.87804
0.878047
0.878047
0.878055
0.878062
0.878069
0.878077
0.878077
0.878084
0.878092
0.878099
0.878107
0.878107
0.878114
0.878122
0.878129
0.878136
0.878136
0.878144
0.878151
0.878159
0.878166
0.878166
0.878174
0.878181
0.878189
0.878196
0.878196
0.878204
0.878211
0.878219
0.878227
0.878227
0.878234
0.878242
0.878249
0.878257
0.878257
0.878264
0.878272
0.87828
0.878287
0.878287
0.878295
0.878302
0.87831
0.878318
0.878318
0.878325
0.878333
0.87834
0.878348
0.878348
0.878356
0.878363
0.878371
0.878379
0.878379
0.878386
0.878394
0.878402
0.878409
0.878409
0.878417
0.878425
0.878433
0.87844
0.87844
0.878448
0.878456
0.878463
0.878471
0.878471
0.878479
0.878487
0.878495
0.878502
0.878502
0.87851
0.878518
0.878526
0.878533
0.878533
0.878541
0.878549
0.878557
0.878565
0.878565
0.878572
0.87858
0.878588
0.878596
0.878596
0.878604
0.878612
0.87862
0.878627
0.878627
0.878635
0.878643
0.878651
0.878659
0.878659
0.878667
0.878675
0.878683
0.878691
0.878691
0.878699
0.878706
0.878714
0.878722
0.878722
0.87873
0.878738
0.878746
0.878754
0.878754
0.878762
0.87877
0.878778
0.878786
0.878786
0.878794
0.878802
0.87881
0.878818
0.878818
0.878826
0.878834
0.878842
0.87885
0.87885
0.878858
0.878866
0.878875
0.878883
0.878883
0.878891
0.878899
0.878907
0.878915
0.878915
0.878923
0.878931
0.878939
0.878947
0.878947
0.878955
0.878964
0.878972
0.87898
0.87898
0.878988
0.878996
0.879004
0.879013
0.879013
0.879021
0.879029
0.879037
0.879045
0.879045
0.879053
0.879062
0.87907
0.879078
0.879078
0.879086
0.879095
0.879103
0.879111
0.879111
0.879119
0.879128
0.879136
0.879144
0.879144
0.879152
0.879161
0.879169
0.879177
0.879177
0.879186
0.879194
0.879202
0.87921
0.87921
0.879219
0.879227
0.879235
0.879244
0.879244
0.879252
0.879261
0.879269
0.879277
0.879277
0.879286
0.879294
0.879302
0.879311
0.879311
0.879319
0.879328
0.879336
0.879344
0.879344
0.879353
0.879361
0.87937
0.879378
0.879378
0.879387
0.879395
0.879404
0.879412
0.879412
0.87942
0.879429
0.879437
0.879446
0.879446
0.879454
0.879463
0.879471
0.87948
0.87948
0.879488
0.879497
0.879506
0.879514
0.879514
0.879523
0.879531
0.87954
0.879548
0.879548
0.879557
0.879565
0.879574
0.879583
0.879583
0.879591
0.8796
0.879608
0.879617
0.879617
0.879626
0.879634
0.879643
0.879652
0.879652
0.87966
0.879669
0.879678
0.879686
0.879686
0.879695
0.879704
0.879712
0.879721
0.879721
0.87973
0.879738
0.879747
0.879756
0.879756
0.879764
0.879773
0.879782
0.879791
0.879791
0.879799
0.879808
0.879817
0.879826
0.879826
0.879834
0.879843
0.879852
0.879861
0.879861
0.87987
0.879878
0.879887
0.879896
0.879896
0.879905
0.879914
0.879922
0.879931
0.879931
0.87994
0.879949
0.879958
0.879967
0.879967
0.879976
0.879984
0.879993
0.880002
0.880002
0.880011
0.88002
0.880029
0.880038
0.880038
0.880047
0.880056
0.880065
0.880073
0.880073
0.880082
0.880091
0.8801
0.880109
0.880109
0.880118
0.880127
0.880136
0.880145
0.880145
0.880154
0.880163
0.880172
0.880181
0.880181
0.88019
0.880199
0.880208
0.880217
0.880217
0.880226
0.880235
0.880244
0.880253
0.880253
0.880262
0.880272
0.880281
0.88029
0.88029
0.880299
0.880308
0.880317
0.880326
0.880326
0.880335
0.880344
0.880353
0.880363
0.880363
0.880372
0.880381
0.88039
0.880399
0.880399
0.880408
0.880417
0.880427
0.880436
0.880436
0.880445
0.880454
0.880463
0.880473
0.880473
0.880482
0.880491
0.8805
0.880509
0.880509
0.880519
0.880528
0.880537
0.880546
0.880546
0.880556
0.880565
0.880574
0.880583
0.880583
0.880593
0.880602
0.880611
0.880621
0.880621
0.88063
0.880639
0.880648
0.880658
0.880658
0.880667
0.880676
0.880686
0.880695
0.880695
0.880704
0.880714
0.880723
0.880733
0.880733
0.880742
0.880751
0.880761
0.88077
0.88077
0.880779
0.880789
0.880798
0.880808
0.880808
0.880817
0.880827
0.880836
0.880845
0.880845
0.880855
0.880864
0.880874
0.880883
0.880883
0.880893
0.880902
0.880912
0.880921
0.880921
0.880931
0.88094
0.88095
0.880959
0.880959
0.880969
0.880978
0.880988
0.880997
0.880997
0.881007
0.881016
0.881026
0.881035
0.881035
0.881045
0.881055
0.881064
0.881074
0.881074
0.881083
0.881093
0.881103
0.881112
0.881112
0.881122
0.881131
0.881141
0.881151
0.881151
0.88116
0.88117
0.88118
0.881189
0.881189
0.881199
0.881209
0.881218
0.881228
0.881228
0.881238
0.881247
0.881257
0.881267
0.881267
0.881276
0.881286
0.881296
0.881306
0.881306
0.881315
0.881325
0.881335
0.881345
0.881345
0.881354
0.881364
0.881374
0.881384
0.881384
0.881393
0.881403
0.881413
0.881423
0.881423
0.881433
0.881442
0.881452
0.881462
0.881462
0.881472
0.881482
0.881491
0.881501
0.881501
0.881511
0.881521
0.881531
0.881541
0.881541
0.881551
0.881561
0.88157
0.88158
0.88158
0.88159
0.8816
0.88161
0.88162
0.88162
0.88163
0.88164
0.88165
0.88166
0.88166
0.88167
0.88168
0.88169
0.881699
0.881699
0.881709
0.881719
0.881729
0.881739
0.881739
0.881749
0.881759
0.881769
0.881779
0.881779
0.881789
0.881799
0.881809
0.881819
0.881819
0.88183
0.88184
0.88185
0.88186
0.88186
0.88187
0.88188
0.88189
0.8819
0.8819
0.88191
0.88192
0.88193
0.88194
0.88194
0.88195
0.881961
0.881971
0.881981
0.881981
0.881991
0.882001
0.882011
0.882021
0.882021
0.882032
0.882042
0.882052
0.882062
0.882062
0.882072
0.882082
0.882093
0.882103
0.882103
0.882113
0.882123
0.882133
0.882144
0.882144
0.882154
0.882164
0.882174
0.882185
0.882185
0.882195
0.882205
0.882215
0.882226
0.882226
0.882236
0.882246
0.882256
0.882267
0.882267
0.882277
0.882287
0.882298
0.882308
0.882308
0.882318
0.882329
0.882339
0.882349
0.882349
0.88236
0.88237
0.88238
0.882391
0.882391
0.882401
0.882411
0.882422
0.882432
0.882432
0.882443
0.882453
0.882463
0.882474
0.882474
0.882484
0.882495
0.882505
0.882515
0.882515
0.882526
0.882536
0.882547
0.882557
0.882557
0.882568
0.882578
0.882589
0.882599
0.882599
0.88261
0.88262
0.882631
0.882641
0.882641
0.882652
0.882662
0.882673
0.882683
0.882683
0.882694
0.882704
0.882715
0.882725
0.882725
0.882736
0.882746
0.882757
0.882767
0.882767
0.882778
0.882789
0.882799
0.88281
0.88281
0.88282
0.882831
0.882842
0.882852
0.882852
0.882863
0.882873
0.882884
0.882895
0.882895
0.882905
0.882916
0.882927
0.882937
0.882937
0.882948
0.882959
0.882969
0.88298
0.88298
0.882991
0.883001
0.883012
0.883023
0.883023
0.883034
0.883044
0.883055
0.883066
0.883066
0.883076
0.883087
0.883098
0.883109
0.883109
0.883119
0.88313
0.883141
0.883152
0.883152
0.883162
0.883173
0.883184
0.883195
0.883195
0.883206
0.883216
0.883227
0.883238
0.883238
0.883249
0.88326
0.883271
0.883281
0.883281
0.883292
0.883303
0.883314
0.883325
0.883325
0.883336
0.883347
0.883357
0.883368
0.883368
0.883379
0.88339
0.883401
0.883412
0.883412
0.883423
0.883434
0.883445
0.883456
0.883456
0.883467
0.883478
0.883489
0.883499
0.883499
0.88351
0.883521
0.883532
0.883543
0.883543
0.883554
0.883565
0.883576
0.883587
0.883587
0.883598
0.883609
0.88362
0.883631
0.883631
0.883642
0.883653
0.883664
0.883676
0.883676
0.883687
0.883698
0.883709
0.88372
0.88372
0.883731
0.883742
0.883753
0.883764
0.883764
0.883775
0.883786
0.883797
0.883809
0.883809
0.88382
0.883831
0.883842
0.883853
0.883853
0.883864
0.883875
0.883886
0.883898
0.883898
0.883909
0.88392
0.883931
0.883942
0.883942
0.883954
0.883965
0.883976
0.883987
0.883987
0.883998
0.88401
0.884021
0.884032
0.884032
0.884043
0.884054
0.884066
0.884077
0.884077
0.884088
0.884099
0.884111
0.884122
0.884122
0.884133
0.884145
0.884156
0.884167
0.884167
0.884178
0.88419
0.884201
0.884212
0.884212
0.884224
0.884235
0.884246
0.884258
0.884258
0.884269
0.88428
0.884292
0.884303
0.884303
0.884314
0.884326
0.884337
0.884349
0.884349
0.88436
0.884371
0.884383
0.884394
0.884394
0.884406
0.884417
0.884428
0.88444
0.88444
0.884451
0.884463
0.884474
0.884486
0.884486
0.884497
0.884509
0.88452
0.884531
0.884531
0.884543
0.884554
0.884566
0.884577
0.884577
0.884589
0.8846
0.884612
0.884623
0.884623
0.884635
0.884646
0.884658
0.88467
0.88467
0.884681
0.884693
0.884704
0.884716
0.884716
0.884727
0.884739
0.88475
0.884762
0.884762
0.884774
0.884785
0.884797
0.884808
0.884808
0.88482
0.884832
0.884843
0.884855
0.884855
0.884867
0.884878
0.88489
0.884901
0.884901
0.884913
0.884925
0.884936
0.884948
0.884948
0.88496
0.884971
0.884983
0.884995
0.884995
0.885007
0.885018
0.88503
0.885042
0.885042
0.885053
0.885065
0.885077
0.885089
0.885089
0.8851
0.885112
0.885124
0.885136
0.885136
0.885147
0.885159
0.885171
0.885183
0.885183
0.885194
0.885206
0.885218
0.88523
0.88523
0.885242
0.885253
0.885265
0.885277
0.885277
0.885289
0.885301
0.885313
0.885324
0.885324
0.885336
0.885348
0.88536
0.885372
0.885372
0.885384
0.885396
0.885407
0.885419
0.885419
0.885431
0.885443
0.885455
0.885467
0.885467
0.885479
0.885491
0.885503
0.885515
0.885515
0.885527
0.885539
0.88555
0.885562
0.885562
0.885574
0.885586
0.885598
0.88561
0.88561
0.885622
0.885634
0.885646
0.885658
0.885658
0.88567
0.885682
0.885694
0.885706
0.885706
0.885718
0.88573
0.885742
0.885754
0.885754
0.885766
0.885779
0.885791
0.885803
0.885803
0.885815
0.885827
0.885839
0.885851
0.885851
0.885863
0.885875
0.885887
0.885899
0.885899
0.885911
0.885924
0.885936
0.885948
0.885948
0.88596
0.885972
0.885984
0.885996
0.885996
0.886008
0.886021
0.886033
0.886045
0.886045
0.886057
0.886069
0.886082
0.886094
0.886094
0.886106
0.886118
0.88613
0.886143
0.886143
0.886155
0.886167
0.886179
0.886191
0.886191
0.886204
0.886216
0.886228
0.88624
0.88624
0.886253
0.886265
0.886277
0.886289
0.886289
0.886302
0.886314
0.886326
0.886339
0.886339
0.886351
0.886363
0.886376
0.886388
0.886388
0.8864
0.886413
0.886425
0.886437
0.886437
0.88645
0.886462
0.886474
0.886487
0.886487
0.886499
0.886511
0.886524
0.886536
0.886536
0.886548
0.886561
0.886573
0.886586
0.886586
0.886598
0.88661
0.886623
0.886635
0.886635
0.886648
0.88666
0.886673
0.886685
0.886685
0.886698
0.88671
0.886722
0.886735
0.886735
0.886747
0.88676
0.886772
0.886785
0.886785
0.886797
0.88681
0.886822
0.886835
0.886835
0.886847
0.88686
0.886872
0.886885
0.886885
0.886897
0.88691
0.886923
0.886935
0.886935
0.886948
0.88696
0.886973
0.886985
0.886985
0.886998
0.887011
0.887023
0.887036
0.887036
0.887048
0.887061
0.887073
0.887086
0.887086
0.887099
0.887111
0.887124
0.887137
0.887137
0.887149
0.887162
0.887175
0.887187
0.887187
0.8872
0.887213
0.887225
0.887238
0.887238
0.887251
0.887263
0.887276
0.887289
0.887289
0.887301
0.887314
0.887327
0.887339
0.887339
0.887352
0.887365
0.887378
0.88739
0.88739
0.887403
0.887416
0.887429
0.887441
0.887441
0.887454
0.887467
0.88748
0.887492
0.887492
0.887505
0.887518
0.887531
0.887544
0.887544
0.887556
0.887569
0.887582
0.887595
0.887595
0.887608
0.887621
0.887633
0.887646
0.887646
0.887659
0.887672
0.887685
0.887698
0.887698
0.887711
0.887723
0.887736
0.887749
0.887749
0.887762
0.887775
0.887788
0.887801
0.887801
0.887814
0.887827
0.88784
0.887852
0.887852
0.887865
0.887878
0.887891
0.887904
0.887904
0.887917
0.88793
0.887943
0.887956
0.887956
0.887969
0.887982
0.887995
0.888008
0.888008
0.888021
0.888034
0.888047
0.88806
0.88806
0.888073
0.888086
0.888099
0.888112
0.888112
0.888125
0.888138
0.888151
0.888164
0.888164
0.888177
0.88819
0.888203
0.888216
0.888216
0.888229
0.888243
0.888256
0.888269
0.888269
0.888282
0.888295
0.888308
0.888321
0.888321
0.888334
0.888347
0.88836
0.888374
0.888374
0.888387
0.8884
0.888413
0.888426
0.888426
0.888439
0.888453
0.888466
0.888479
0.888479
0.888492
0.888505
0.888518
0.888532
0.888532
0.888545
0.888558
0.888571
0.888584
0.888584
0.888598
0.888611
0.888624
0.888637
0.888637
0.888651
0.888664
0.888677
0.88869
0.88869
0.888703
0.888717
0.88873
0.888743
0.888743
0.888757
0.88877
0.888783
0.888796
0.888796
0.88881
0.888823
0.888836
0.88885
0.88885
0.888863
0.888876
0.88889
0.888903
0.888903
0.888916
0.88893
0.888943
0.888956
0.888956
0.88897
0.888983
0.888996
0.88901
0.88901
0.889023
0.889037
0.88905
0.889063
0.889063
0.889077
0.88909
0.889104
0.889117
0.889117
0.88913
0.889144
0.889157
0.889171
0.889171
0.889184
0.889197
0.889211
0.889224
0.889224
0.889238
0.889251
0.889265
0.889278
0.889278
0.889292
0.889305
0.889319
0.889332
0.889332
0.889346
0.889359
0.889373
0.889386
0.889386
0.8894
0.889413
0.889427
0.88944
0.88944
0.889454
0.889467
0.889481
0.889494
0.889494
0.889508
0.889522
0.889535
0.889549
0.889549
0.889562
0.889576
0.889589
0.889603
0.889603
0.889617
0.88963
0.889644
0.889657
0.889657
0.889671
0.889685
0.889698
0.889712
0.889712
0.889726
0.889739
0.889753
0.889767
0.889767
0.88978
0.889794
0.889808
0.889821
0.889821
0.889835
0.889849
0.889862
0.889876
0.889876
0.88989
0.889903
0.889917
0.889931
0.889931
0.889944
0.889958
0.889972
0.889986
0.889986
0.889999
0.890013
0.890027
0.890041
0.890041
0.890054
0.890068
0.890082
0.890096
0.890096
0.890109
0.890123
0.890137
0.890151
0.890151
0.890164
0.890178
0.890192
0.890206
0.890206
0.89022
0.890234
0.890247
0.890261
0.890261
0.890275
0.890289
0.890303
0.890317
0.890317
0.89033
0.890344
0.890358
0.890372
0.890372
0.890386
0.8904
0.890414
0.890427
0.890427
0.890441
0.890455
0.890469
0.890483
0.890483
0.890497
0.890511
0.890525
0.890539
0.890539
0.890553
0.890567
0.890581
0.890594
0.890594
0.890608
0.890622
0.890636
0.89065
0.89065
0.890664
0.890678
0.890692
0.890706
0.890706
0.89072
0.890734
0.890748
0.890762
0.890762
0.890776
0.89079
0.890804
0.890818
0.890818
0.890832
0.890846
0.89086
0.890874
0.890874
0.890888
0.890902
0.890916
0.890931
0.890931
0.890945
0.890959
0.890973
0.890987
0.890987
0.891001
0.891015
0.891029
0.891043
0.891043
0.891057
0.891071
0.891085
0.8911
0.8911
0.891114
0.891128
0.891142
0.891156
0.891156
0.89117
0.891184
0.891199
0.891213
0.891213
0.891227
0.891241
0.891255
0.891269
0.891269
0.891284
0.891298
0.891312
0.891326
0.891326
0.89134
0.891354
0.891369
0.891383
0.891383
0.891397
0.891411
0.891426
0.89144
0.89144
0.891454
0.891468
0.891482
0.891497
0.891497
0.891511
0.891525
0.89154
0.891554
0.891554
0.891568
0.891582
0.891597
0.891611
0.891611
0.891625
0.891639
0.891654
0.891668
0.891668
0.891682
0.891697
0.891711
0.891725
0.891725
0.89174
0.891754
0.891768
0.891783
0.891783
0.891797
0.891811
0.891826
0.89184
0.89184
0.891854
0.891869
0.891883
0.891898
0.891898
0.891912
0.891926
0.891941
0.891955
0.891955
0.89197
0.891984
0.891998
0.892013
0.892013
0.892027
0.892042
0.892056
0.892071
0.892071
0.892085
0.892099
0.892114
0.892128
0.892128
0.892143
0.892157
0.892172
0.892186
0.892186
0.892201
0.892215
0.89223
0.892244
0.892244
0.892259
0.892273
0.892288
0.892302
0.892302
0.892317
0.892331
0.892346
0.89236
0.89236
0.892375
0.892389
0.892404
0.892418
0.892418
0.892433
0.892447
0.892462
0.892477
0.892477
0.892491
0.892506
0.89252
0.892535
0.892535
0.892549
0.892564
0.892579
0.892593
0.892593
0.892608
0.892623
0.892637
0.892652
0.892652
0.892666
0.892681
0.892696
0.89271
0.89271
0.892725
0.89274
0.892754
0.892769
0.892769
0.892784
0.892798
0.892813
0.892828
0.892828
0.892842
0.892857
0.892872
0.892886
0.892886
0.892901
0.892916
0.89293
0.892945
0.892945
0.89296
0.892975
0.892989
0.893004
0.893004
0.893019
0.893034
0.893048
0.893063
0.893063
0.893078
0.893093
0.893107
0.893122
0.893122
0.893137
0.893152
0.893166
0.893181
0.893181
0.893196
0.893211
0.893226
0.89324
0.89324
0.893255
0.89327
0.893285
0.8933
0.8933
0.893314
0.893329
0.893344
0.893359
0.893359
0.893374
0.893389
0.893403
0.893418
0.893418
0.893433
0.893448
0.893463
0.893478
0.893478
0.893493
0.893508
0.893522
0.893537
0.893537
0.893552
0.893567
0.893582
0.893597
0.893597
0.893612
0.893627
0.893642
0.893657
0.893657
0.893672
0.893687
0.893701
0.893716
0.893716
0.893731
0.893746
0.893761
0.893776
0.893776
0.893791
0.893806
0.893821
0.893836
0.893836
0.893851
0.893866
0.893881
0.893896
0.893896
0.893911
0.893926
0.893941
0.893956
0.893956
0.893971
0.893986
0.894001
0.894016
0.894016
0.894031
0.894046
0.894061
0.894077
0.894077
0.894092
0.894107
0.894122
0.894137
0.894137
0.894152
0.894167
0.894182
0.894197
0.894197
0.894212
0.894227
0.894242
0.894258
0.894258
0.894273
0.894288
0.894303
0.894318
0.894318
0.894333
0.894348
0.894363
0.894379
0.894379
0.894394
0.894409
0.894424
0.894439
0.894439
0.894454
0.89447
0.894485
0.8945
0.8945
0.894515
0.89453
0.894545
0.894561
0.894561
0.894576
0.894591
0.894606
0.894621
0.894621
0.894637
0.894652
0.894667
0.894682
0.894682
0.894698
0.894713
0.894728
0.894743
0.894743
0.894759
0.894774
0.894789
0.894804
0.894804
0.89482
0.894835
0.89485
0.894865
0.894865
0.894881
0.894896
0.894911
0.894927
0.894927
0.894942
0.894957
0.894973
0.894988
0.894988
0.895003
0.895019
0.895034
0.895049
0.895049
0.895065
0.89508
0.895095
0.895111
0.895111
0.895126
0.895141
0.895157
0.895172
0.895172
0.895187
0.895203
0.895218
0.895234
0.895234
0.895249
0.895264
0.89528
0.895295
0.895295
0.895311
0.895326
0.895341
0.895357
0.895357
0.895372
0.895388
0.895403
0.895419
0.895419
0.895434
0.895449
0.895465
0.89548
0.89548
0.895496
0.895511
0.895527
0.895542
0.895542
0.895558
0.895573
0.895589
0.895604
0.895604
0.89562
0.895635
0.895651
0.895666
0.895666
0.895682
0.895697
0.895713
0.895728
0.895728
0.895744
0.895759
0.895775
0.89579
0.89579
0.895806
0.895822
0.895837
0.895853
0.895853
0.895868
0.895884
0.895899
0.895915
0.895915
0.89593
0.895946
0.895962
0.895977
0.895977
0.895993
0.896008
0.896024
0.89604
0.89604
0.896055
0.896071
0.896087
0.896102
0.896102
0.896118
0.896133
0.896149
0.896165
0.896165
0.89618
0.896196
0.896212
0.896227
0.896227
0.896243
0.896259
0.896274
0.89629
0.89629
0.896306
0.896321
0.896337
0.896353
0.896353
0.896368
0.896384
0.8964
0.896416
0.896416
0.896431
0.896447
0.896463
0.896478
0.896478
0.896494
0.89651
0.896526
0.896541
0.896541
0.896557
0.896573
0.896589
0.896604
0.896604
0.89662
0.896636
0.896652
0.896668
0.896668
0.896683
0.896699
0.896715
0.896731
0.896731
0.896746