<?xml version="1.0"?>
<VTKFile type="UnstructuredGrid" version="0.1" byte_order="LittleEndian">
<UnstructuredGrid>
<Piece NumberOfPoints="5000" NumberOfCells="4000">
<PointData Scalars="Reaction 0">
<DataArray type="Float32" Name="Reaction 0" format="ascii">
0.501634
0.501634
0.501634
0.501634
0.501634
0.501634
0.501634
0.501634
0.501635
0.501635
0.501635
0.501635
0.501635
0.501635
0.501636
0.501636
0.501636
0.501636
0.501637
0.501637
0.501637
0.501637
0.501638
0.501638
0.501638
0.501638
0.501639
0.501639
0.50164
0.50164
0.50164
0.501641
0.501642
0.501642
0.501643
0.501643
0.501643
0.501644
0.501645
0.501645
0.501645
0.501646
0.501647
0.501648
0.501649
0.501649
0.501649
0.50165
0.501651
0.501652
0.501652
0.501653
0.501654
0.501655
0.501656
0.501656
0.501657
0.501658
0.501659
0.50166
0.50166
0.501661
0.501662
0.501663
0.501664
0.501664
0.501665
0.501667
0.501668
0.501669
0.501669
0.50167
0.501672
0.501673
0.501674
0.501674
0.501676
0.501677
0.501678
0.50168
0.50168
0.501681
0.501683
0.501684
0.501686
0.501686
0.501687
0.501689
0.50169
0.501692
0.501692
0.501694
0.501695
0.501697
0.501699
0.501699
0.5017
0.501702
0.501704
0.501706
0.501706
0.501707
0.501709
0.501711
0.501713
0.501713
0.501715
0.501717
0.501719
0.501721
0.501721
0.501723
0.501725
0.501727
0.501729
0.501729
0.501731
0.501733
0.501735
0.501737
0.501737
0.501739
0.501742
0.501744
0.501746
0.501746
0.501748
0.50175
0.501753
0.501755
0.501755
0.501757
0.50176
0.501762
0.501765
0.501765
0.501767
0.501769
0.501772
0.501774
0.501774
0.501777
0.501779
0.501782
0.501785
0.501785
0.501787
0.50179
0.501793
0.501795
0.501795
0.501798
0.501801
0.501803
0.501806
0.501806
0.501809
0.501812
0.501815
0.501817
0.501817
0.50182
0.501823
0.501826
0.501829
0.501829
0.501832
0.501835
0.501838
0.501841
0.501841
0.501844
0.501847
0.50185
0.501853
0.501853
0.501857
0.50186
0.501863
0.501866
0.501866
0.501869
0.501873
0.501876
0.501879
0.501879
0.501883
0.501886
0.501889
0.501893
0.501893
0.501896
0.501899
0.501903
0.501906
0.501906
0.50191
0.501913
0.501917
0.501921
0.501921
0.501924
0.501928
0.501931
0.501935
0.501935
0.501939
0.501942
0.501946
0.50195
0.50195
0.501954
0.501957
0.501961
0.501965
0.501965
0.501969
0.501973
0.501977
0.501981
0.501981
0.501985
0.501989
0.501993
0.501997
0.501997
0.502001
0.502005
0.502009
0.502013
0.502013
0.502017
0.502021
0.502025
0.50203
0.50203
0.502034
0.502038
0.502042
0.502047
0.502047
0.502051
0.502055
0.50206
0.502064
0.502064
0.502068
0.502073
0.502077
0.502082
0.502082
0.502086
0.502091
0.502095
0.5021
0.5021
0.502104
0.502109
0.502114
0.502118
0.502118
0.502123
0.502128
0.502132
0.502137
0.502137
0.502142
0.502147
0.502151
0.502156
0.502156
0.502161
0.502166
0.502171
0.502176
0.502176
0.502181
0.502186
0.502191
0.502196
0.502196
0.502201
0.502206
0.502211
0.502216
0.502216
0.502221
0.502226
0.502231
0.502236
0.502236
0.502242
0.502247
0.502252
0.502257
0.502257
0.502263
0.502268
0.502273
0.502279
0.502279
0.502284
0.502289
0.502295
0.5023
0.5023
0.502306
0.502311
0.502317
0.502322
0.502322
0.502328
0.502333
0.502339
0.502345
0.502345
0.50235
0.502356
0.502362
0.502367
0.502367
0.502373
0.502379
0.502385
0.502391
0.502391
0.502396
0.502402
0.502408
0.502414
0.502414
0.50242
0.502426
0.502432
0.502438
0.502438
0.502444
0.50245
0.502456
0.502462
0.502462
0.502468
0.502474
0.50248
0.502486
0.502486
0.502493
0.502499
0.502505
0.502511
0.502511
0.502518
0.502524
0.50253
0.502537
0.502537
0.502543
0.502549
0.502556
0.502562
0.502562
0.502569
0.502575
0.502582
0.502588
0.502588
0.502595
0.502601
0.502608
0.502614
0.502614
0.502621
0.502628
0.502634
0.502641
0.502641
0.502648
0.502655
0.502661
0.502668
0.502668
0.502675
0.502682
0.502689
0.502696
0.502696
0.502702
0.502709
0.502716
0.502723
0.502723
0.50273
0.502737
0.502744
0.502751
0.502751
0.502758
0.502766
0.502773
0.50278
0.50278
0.502787
0.502794
0.502801
0.502809
0.502809
0.502816
0.502823
0.50283
0.502838
0.502838
0.502845
0.502852
0.50286
0.502867
0.502867
0.502875
0.502882
0.50289
0.502897
0.502897
0.502905
0.502912
0.50292
0.502927
0.502927
0.502935
0.502943
0.50295
0.502958
0.502958
0.502966
0.502973
0.502981
0.502989
0.502989
0.502997
0.503005
0.503012
0.50302
0.50302
0.503028
0.503036
0.503044
0.503052
0.503052
0.50306
0.503068
0.503076
0.503084
0.503084
0.503092
0.5031
0.503108
0.503116
0.503116
0.503124
0.503133
0.503141
0.503149
0.503149
0.503157
0.503166
0.503174
0.503182
0.503182
0.50319
0.503199
0.503207
0.503216
0.503216
0.503224
0.503232
0.503241
0.503249
0.503249
0.503258
0.503266
0.503275
0.503284
0.503284
0.503292
0.503301
0.503309
0.503318
0.503318
0.503327
0.503335
0.503344
0.503353
0.503353
0.503362
0.503371
0.503379
0.503388
0.503388
0.503397
0.503406
0.503415
0.503424
0.503424
0.503433
0.503442
0.503451
0.50346
0.50346
0.503469
0.503478
0.503487
0.503496
0.503496
0.503505
0.503514
0.503523
0.503533
0.503533
0.503542
0.503551
0.50356
0.50357
0.50357
0.503579
0.503588
0.503598
0.503607
0.503607
0.503616
0.503626
0.503635
0.503645
0.503645
0.503654
0.503664
0.503673
0.503683
0.503683
0.503692
0.503702
0.503712
0.503721
0.503721
0.503731
0.503741
0.50375
0.50376
0.50376
0.50377
0.50378
0.503789
0.503799
0.503799
0.503809
0.503819
0.503829
0.503839
0.503839
0.503849
0.503859
0.503869
0.503879
0.503879
0.503889
0.503899
0.503909
0.503919
0.503919
0.503929
0.503939
0.503949
0.503959
0.503959
0.50397
0.50398
0.50399
0.504
0.504
0.504011
0.504021
0.504031
0.504042
0.504042
0.504052
0.504062
0.504073
0.504083
0.504083
0.504094
0.504104
0.504115
0.504125
0.504125
0.504136
0.504146
0.504157
0.504168
0.504168
0.504178
0.504189
0.5042
0.50421
0.50421
0.504221
0.504232
0.504243
0.504253
0.504253
0.504264
0.504275
0.504286
0.504297
0.504297
0.504308
0.504319
0.50433
0.504341
0.504341
0.504352
0.504363
0.504374
0.504385
0.504385
0.504396
0.504407
0.504418
0.504429
0.504429
0.50444
0.504452
0.504463
0.504474
0.504474
0.504485
0.504497
0.504508
0.504519
0.504519
0.504531
0.504542
0.504553
0.504565
0.504565
0.504576
0.504588
0.504599
0.504611
0.504611
0.504622
0.504634
0.504645
0.504657
0.504657
0.504669
0.50468
0.504692
0.504704
0.504704
0.504715
0.504727
0.504739
0.504751
0.504751
0.504762
0.504774
0.504786
0.504798
0.504798
0.50481
0.504822
0.504834
0.504846
0.504846
0.504858
0.50487
0.504882
0.504894
0.504894
0.504906
0.504918
0.50493
0.504942
0.504942
0.504954
0.504966
0.504979
0.504991
0.504991
0.505003
0.505015
0.505028
0.50504
0.50504
0.505052
0.505065
0.505077
0.505089
0.505089
0.505102
0.505114
0.505127
0.505139
0.505139
0.505152
0.505164
0.505177
0.505189
0.505189
0.505202
0.505215
0.505227
0.50524
0.50524
0.505253
0.505265
0.505278
0.505291
0.505291
0.505304
0.505316
0.505329
0.505342
0.505342
0.505355
0.505368
0.505381
0.505394
0.505394
0.505407
0.50542
0.505433
0.505446
0.505446
0.505459
0.505472
0.505485
0.505498
0.505498
0.505511
0.505524
0.505537
0.505551
0.505551
0.505564
0.505577
0.50559
0.505604
0.505604
0.505617
0.50563
0.505644
0.505657
0.505657
0.50567
0.505684
0.505697
0.505711
0.505711
0.505724
0.505738
0.505751
0.505765
0.505765
0.505778
0.505792
0.505806
0.505819
0.505819
0.505833
0.505847
0.50586
0.505874
0.505874
0.505888
0.505902
0.505915
0.505929
0.505929
0.505943
0.505957
0.505971
0.505985
0.505985
0.505999
0.506012
0.506026
0.50604
0.50604
0.506054
0.506069
0.506083
0.506097
0.506097
0.506111
0.506125
0.506139
0.506153
0.506153
0.506167
0.506182
0.506196
0.50621
0.50621
0.506224
0.506239
0.506253
0.506267
0.506267
0.506282
0.506296
0.506311
0.506325
0.506325
0.506339
0.506354
0.506368
0.506383
0.506383
0.506398
0.506412
0.506427
0.506441
0.506441
0.506456
0.506471
0.506485
0.5065
0.5065
0.506515
0.506529
0.506544
0.506559
0.506559
0.506574
0.506589
0.506604
0.506618
0.506618
0.506633
0.506648
0.506663
0.506678
0.506678
0.506693
0.506708
0.506723
0.506738
0.506738
0.506753
0.506768
0.506784
0.506799
0.506799
0.506814
0.506829
0.506844
0.506859
0.506859
0.506875
0.50689
0.506905
0.506921
0.506921
0.506936
0.506951
0.506967
0.506982
0.506982
0.506998
0.507013
0.507028
0.507044
0.507044
0.507059
0.507075
0.507091
0.507106
0.507106
0.507122
0.507137
0.507153
0.507169
0.507169
0.507184
0.5072
0.507216
0.507232
0.507232
0.507247
0.507263
0.507279
0.507295
0.507295
0.507311
0.507327
0.507343
0.507359
0.507359
0.507374
0.50739
0.507406
0.507423
0.507423
0.507439
0.507455
0.507471
0.507487
0.507487
0.507503
0.507519
0.507535
0.507552
0.507552
0.507568
0.507584
0.5076
0.507617
0.507617
0.507633
0.507649
0.507666
0.507682
0.507682
0.507698
0.507715
0.507731
0.507748
0.507748
0.507764
0.507781
0.507797
0.507814
0.507814
0.50783
0.507847
0.507864
0.50788
0.50788
0.507897
0.507914
0.50793
0.507947
0.507947
0.507964
0.507981
0.507997
0.508014
0.508014
0.508031
0.508048
0.508065
0.508082
0.508082
0.508099
0.508116
0.508132
0.508149
0.508149
0.508167
0.508184
0.508201
0.508218
0.508218
0.508235
0.508252
0.508269
0.508286
0.508286
0.508303
0.508321
0.508338
0.508355
0.508355
0.508372
0.50839
0.508407
0.508424
0.508424
0.508442
0.508459
0.508477
0.508494
0.508494
0.508511
0.508529
0.508546
0.508564
0.508564
0.508582
0.508599
0.508617
0.508634
0.508634
0.508652
0.50867
0.508687
0.508705
0.508705
0.508723
0.50874
0.508758
0.508776
0.508776
0.508794
0.508812
0.508829
0.508847
0.508847
0.508865
0.508883
0.508901
0.508919
0.508919
0.508937
0.508955
0.508973
0.508991
0.508991
0.509009
0.509027
0.509045
0.509064
0.509064
0.509082
0.5091
0.509118
0.509136
0.509136
0.509155
0.509173
0.509191
0.509209
0.509209
0.509228
0.509246
0.509265
0.509283
0.509283
0.509301
0.50932
0.509338
0.509357
0.509357
0.509375
0.509394
0.509412
0.509431
0.509431
0.50945
0.509468
0.509487
0.509505
0.509505
0.509524
0.509543
0.509562
0.50958
0.50958
0.509599
0.509618
0.509637
0.509656
0.509656
0.509674
0.509693
0.509712
0.509731
0.509731
0.50975
0.509769
0.509788
0.509807
0.509807
0.509826
0.509845
0.509864
0.509883
0.509883
0.509902
0.509922
0.509941
0.50996
0.50996
0.509979
0.509998
0.510018
0.510037
0.510037
0.510056
0.510076
0.510095
0.510114
0.510114
0.510134
0.510153
0.510172
0.510192
0.510192
0.510211
0.510231
0.51025
0.51027
0.51027
0.51029
0.510309
0.510329
0.510348
0.510348
0.510368
0.510388
0.510407
0.510427
0.510427
0.510447
0.510467
0.510486
0.510506
0.510506
0.510526
0.510546
0.510566
0.510586
0.510586
0.510606
0.510625
0.510645
0.510665
0.510665
0.510685
0.510705
0.510725
0.510745
0.510745
0.510766
0.510786
0.510806
0.510826
0.510826
0.510846
0.510866
0.510887
0.510907
0.510907
0.510927
0.510947
0.510968
0.510988
0.510988
0.511008
0.511029
0.511049
0.51107
0.51107
0.51109
0.51111
0.511131
0.511151
0.511151
0.511172
0.511192
0.511213
0.511234
0.511234
0.511254
0.511275
0.511296
0.511316
0.511316
0.511337
0.511358
0.511378
0.511399
0.511399
0.51142
0.511441
0.511462
0.511482
0.511482
0.511503
0.511524
0.511545
0.511566
0.511566
0.511587
0.511608
0.511629
0.51165
0.51165
0.511671
0.511692
0.511713
0.511734
0.511734
0.511755
0.511777
0.511798
0.511819
0.511819
0.51184
0.511861
0.511883
0.511904
0.511904
0.511925
0.511947
0.511968
0.511989
0.511989
0.512011
0.512032
0.512054
0.512075
0.512075
0.512097
0.512118
0.51214
0.512161
0.512161
0.512183
0.512204
0.512226
0.512247
0.512247
0.512269
0.512291
0.512313
0.512334
0.512334
0.512356
0.512378
0.5124
0.512421
0.512421
0.512443
0.512465
0.512487
0.512509
0.512509
0.512531
0.512553
0.512575
0.512597
0.512597
0.512619
0.512641
0.512663
0.512685
0.512685
0.512707
0.512729
0.512751
0.512773
0.512773
0.512795
0.512818
0.51284
0.512862
0.512862
0.512884
0.512907
0.512929
0.512951
0.512951
0.512974
0.512996
0.513018
0.513041
0.513041
0.513063
0.513086
0.513108
0.513131
0.513131
0.513153
0.513176
0.513198
0.513221
0.513221
0.513244
0.513266
0.513289
0.513311
0.513311
0.513334
0.513357
0.51338
0.513402
0.513402
0.513425
0.513448
0.513471
0.513494
0.513494
0.513517
0.513539
0.513562
0.513585
0.513585
0.513608
0.513631
0.513654
0.513677
0.513677
0.5137
0.513723
0.513746
0.51377
0.51377
0.513793
0.513816
0.513839
0.513862
0.513862
0.513885
0.513909
0.513932
0.513955
0.513955
0.513979
0.514002
0.514025
0.514049
0.514049
0.514072
0.514095
0.514119
0.514142
0.514142
0.514166
0.514189
0.514213
0.514236
0.514236
0.51426
0.514283
0.514307
0.514331
0.514331
0.514354
0.514378
0.514402
0.514425
0.514425
0.514449
0.514473
0.514497
0.514521
0.514521
0.514544
0.514568
0.514592
0.514616
0.514616
0.51464
0.514664
0.514688
0.514712
0.514712
0.514736
0.51476
0.514784
0.514808
0.514808
0.514832
0.514856
0.51488
0.514904
0.514904
0.514928
0.514953
0.514977
0.515001
0.515001
0.515025
0.51505
0.515074
0.515098
0.515098
0.515123
0.515147
0.515171
0.515196
0.515196
0.51522
0.515245
0.515269
0.515294
0.515294
0.515318
0.515343
0.515367
0.515392
0.515392
0.515416
0.515441
0.515466
0.51549
0.51549
0.515515
0.51554
0.515564
0.515589
0.515589
0.515614
0.515639
0.515664
0.515688
0.515688
0.515713
0.515738
0.515763
0.515788
0.515788
0.515813
0.515838
0.515863
0.515888
0.515888
0.515913
0.515938
0.515963
0.515988
0.515988
0.516013
0.516038
0.516064
0.516089
0.516089
0.516114
0.516139
0.516164
0.51619
0.51619
0.516215
0.51624
0.516266
0.516291
0.516291
0.516316
0.516342
0.516367
0.516393
0.516393
0.516418
0.516444
0.516469
0.516495
0.516495
0.51652
0.516546
0.516571
0.516597
0.516597
0.516623
0.516648
0.516674
0.5167
0.5167
0.516725
0.516751
0.516777
0.516803
0.516803
0.516828
0.516854
0.51688
0.516906
0.516906
0.516932
0.516958
0.516984
0.51701
0.51701
0.517036
0.517062
0.517088
0.517114
0.517114
0.51714
0.517166
0.517192
0.517218
0.517218
0.517244
0.51727
0.517297
0.517323
0.517323
0.517349
0.517375
0.517402
0.517428
0.517428
0.517454
0.517481
0.517507
0.517533
0.517533
0.51756
0.517586
0.517613
0.517639
0.517639
0.517666
0.517692
0.517719
0.517745
0.517745
0.517772
0.517798
0.517825
0.517852
0.517852
0.517878
0.517905
0.517932
0.517958
0.517958
0.517985
0.518012
0.518039
0.518066
0.518066
0.518092
0.518119
0.518146
0.518173
0.518173
0.5182
0.518227
0.518254
0.518281
0.518281
0.518308
0.518335
0.518362
0.518389
0.518389
0.518416
0.518443
0.51847
0.518498
0.518498
0.518525
0.518552
0.518579
0.518606
0.518606
0.518634
0.518661
0.518688
0.518716
0.518716
0.518743
0.51877
0.518798
0.518825
0.518825
0.518852
0.51888
0.518907
0.518935
0.518935
0.518962
0.51899
0.519018
0.519045
0.519045
0.519073
0.5191
0.519128
0.519156
0.519156
0.519183
0.519211
0.519239
0.519267
0.519267
0.519294
0.519322
0.51935
0.519378
0.519378
0.519406
0.519434
0.519461
0.519489
0.519489
0.519517
0.519545
0.519573
0.519601
0.519601
0.519629
0.519657
0.519685
0.519714
0.519714
0.519742
0.51977
0.519798
0.519826
0.519826
0.519854
0.519883
0.519911
0.519939
0.519939
0.519967
0.519996
0.520024
0.520052
0.520052
0.520081
0.520109
0.520138
0.520166
0.520166
0.520194
0.520223
0.520251
0.52028
0.52028
0.520308
0.520337
0.520366
0.520394
0.520394
0.520423
0.520451
0.52048
0.520509
0.520509
0.520538
0.520566
0.520595
0.520624
0.520624
0.520653
0.520681
0.52071
0.520739
0.520739
0.520768
0.520797
0.520826
0.520855
0.520855
0.520884
0.520913
0.520942
0.520971
0.520971
0.521
0.521029
0.521058
0.521087
0.521087
0.521116
0.521145
0.521175
0.521204
0.521204
0.521233
0.521262
0.521292
0.521321
0.521321
0.52135
0.521379
0.521409
0.521438
0.521438
0.521468
0.521497
0.521526
0.521556
0.521556
0.521585
0.521615
0.521644
0.521674
0.521674
0.521703
0.521733
0.521763
0.521792
0.521792
0.521822
0.521852
0.521881
0.521911
0.521911
0.521941
0.52197
0.522
0.52203
0.52203
0.52206
0.52209
0.522119
0.522149
0.522149
0.522179
0.522209
0.522239
0.522269
0.522269
0.522299
0.522329
0.522359
0.522389
0.522389
0.522419
0.522449
0.522479
0.52251
0.52251
0.52254
0.52257
0.5226
0.52263
0.52263
0.522661
0.522691
0.522721
0.522751
0.522751
0.522782
0.522812
0.522842
0.522873
0.522873
0.522903
0.522934
0.522964
0.522995
0.522995
0.523025
0.523056
0.523086
0.523117
0.523117
0.523147
0.523178
0.523208
0.523239
0.523239
0.52327
0.5233
0.523331
0.523362
0.523362
0.523393
0.523423
0.523454
0.523485
0.523485
0.523516
0.523547
0.523577
0.523608
0.523608
0.523639
0.52367
0.523701
0.523732
0.523732
0.523763
0.523794
0.523825
0.523856
0.523856
0.523887
0.523918
0.52395
0.523981
0.523981
0.524012
0.524043
0.524074
0.524105
0.524105
0.524137
0.524168
0.524199
0.524231
0.524231
0.524262
0.524293
0.524325
0.524356
0.524356
0.524387
0.524419
0.52445
0.524482
0.524482
0.524513
0.524545
0.524576
0.524608
0.524608
0.52464
0.524671
0.524703
0.524734
0.524734
0.524766
0.524798
0.524829
0.524861
0.524861
0.524893
0.524925
0.524957
0.524988
0.524988
0.52502
0.525052
0.525084
0.525116
0.525116
0.525148
0.52518
0.525212
0.525244
0.525244
0.525276
0.525308
0.52534
0.525372
0.525372
0.525404
0.525436
0.525468
0.5255
0.5255
0.525532
0.525565
0.525597
0.525629
0.525629
0.525661
0.525694
0.525726
0.525758
0.525758
0.525791
0.525823
0.525855
0.525888
0.525888
0.52592
0.525953
0.525985
0.526018
0.526018
0.52605
0.526083
0.526115
0.526148
0.526148
0.52618
0.526213
0.526246
0.526278
0.526278
0.526311
0.526344
0.526376
0.526409
0.526409
0.526442
0.526475
0.526507
0.52654
0.52654
0.526573
0.526606
0.526639
0.526672
0.526672
0.526705
0.526738
0.52677
0.526803
0.526803
0.526836
0.52687
0.526903
0.526936
0.526936
0.526969
0.527002
0.527035
0.527068
0.527068
0.527101
0.527134
0.527168
0.527201
0.527201
0.527234
0.527267
0.527301
0.527334
0.527334
0.527367
0.527401
0.527434
0.527468
0.527468
0.527501
0.527534
0.527568
0.527601
0.527601
0.527635
0.527668
0.527702
0.527736
0.527736
0.527769
0.527803
0.527836
0.52787
0.52787
0.527904
0.527937
0.527971
0.528005
0.528005
0.528039
0.528072
0.528106
0.52814
0.52814
0.528174
0.528208
0.528242
0.528276
0.528276
0.528309
0.528343
0.528377
0.528411
0.528411
0.528445
0.528479
0.528513
0.528547
0.528547
0.528582
0.528616
0.52865
0.528684
0.528684
0.528718
0.528752
0.528787
0.528821
0.528821
0.528855
0.528889
0.528924
0.528958
0.528958
0.528992
0.529027
0.529061
0.529095
0.529095
0.52913
0.529164
0.529199
0.529233
0.529233
0.529268
0.529302
0.529337
0.529371
0.529371
0.529406
0.529441
0.529475
0.52951
0.52951
0.529545
0.529579
0.529614
0.529649
0.529649
0.529683
0.529718
0.529753
0.529788
0.529788
0.529823
0.529857
0.529892
0.529927
0.529927
0.529962
0.529997
0.530032
0.530067
0.530067
0.530102
0.530137
0.530172
0.530207
0.530207
0.530242
0.530277
0.530313
0.530348
0.530348
0.530383
0.530418
0.530453
0.530488
0.530488
0.530524
0.530559
0.530594
0.53063
0.53063
0.530665
0.5307
0.530736
0.530771
0.530771
0.530806
0.530842
0.530877
0.530913
0.530913
0.530948
0.530984
0.531019
0.531055
0.531055
0.53109
0.531126
0.531162
0.531197
0.531197
0.531233
0.531269
0.531304
0.53134
0.53134
0.531376
0.531412
0.531447
0.531483
0.531483
0.531519
0.531555
0.531591
0.531627
0.531627
0.531663
0.531698
0.531734
0.53177
0.53177
0.531806
0.531842
0.531878
0.531914
0.531914
0.531951
0.531987
0.532023
0.532059
0.532059
0.532095
0.532131
0.532167
0.532204
0.532204
0.53224
0.532276
0.532312
0.532349
0.532349
0.532385
0.532421
0.532458
0.532494
0.532494
0.53253
0.532567
0.532603
0.53264
0.53264
0.532676
0.532713
0.532749
0.532786
0.532786
0.532822
0.532859
0.532896
0.532932
0.532932
0.532969
0.533006
0.533042
0.533079
0.533079
0.533116
0.533152
0.533189
0.533226
0.533226
0.533263
0.5333
0.533336
0.533373
0.533373
0.53341
0.533447
0.533484
0.533521
0.533521
0.533558
0.533595
0.533632
0.533669
0.533669
0.533706
0.533743
0.53378
0.533817
0.533817
0.533855
0.533892
0.533929
0.533966
0.533966
0.534003
0.534041
0.534078
0.534115
0.534115
0.534152
0.53419
0.534227
0.534264
0.534264
0.534302
0.534339
0.534377
0.534414
0.534414
0.534452
0.534489
0.534527
0.534564
0.534564
0.534602
0.534639
0.534677
0.534714
0.534714
0.534752
0.53479
0.534827
0.534865
0.534865
0.534903
0.53494
0.534978
0.535016
0.535016
0.535054
0.535092
0.535129
0.535167
0.535167
0.535205
0.535243
0.535281
0.535319
0.535319
0.535357
0.535395
0.535433
0.535471
0.535471
0.535509
0.535547
0.535585
0.535623
0.535623
0.535661
0.535699
0.535737
0.535776
0.535776
0.535814
0.535852
0.53589
0.535929
0.535929
0.535967
0.536005
0.536043
0.536082
0.536082
0.53612
0.536158
0.536197
0.536235
0.536235
0.536274
0.536312
0.536351
0.536389
0.536389
0.536428
0.536466
0.536505
0.536543
0.536543
0.536582
0.536621
0.536659
0.536698
0.536698
0.536737
0.536775
0.536814
0.536853
0.536853
0.536892
0.53693
0.536969
0.537008
0.537008
0.537047
0.537086
0.537125
0.537163
0.537163
0.537202
0.537241
0.53728
0.537319
0.537319
0.537358
0.537397
0.537436
0.537475
0.537475
0.537515
0.537554
0.537593
0.537632
0.537632
0.537671
0.53771
0.537749
0.537789
0.537789
0.537828
0.537867
0.537907
0.537946
0.537946
0.537985
0.538025
0.538064
0.538103
0.538103
0.538143
0.538182
0.538222
0.538261
0.538261
0.538301
0.53834
0.53838
0.538419
0.538419
0.538459
0.538498
0.538538
0.538578
0.538578
0.538617
0.538657
0.538697
0.538736
0.538736
0.538776
0.538816
0.538856
0.538895
0.538895
0.538935
0.538975
0.539015
0.539055
0.539055
0.539095
0.539134
0.539174
0.539214
0.539214
0.539254
0.539294
0.539334
0.539374
0.539374
0.539414
0.539455
0.539495
0.539535
0.539535
0.539575
0.539615
0.539655
0.539695
0.539695
0.539736
0.539776
0.539816
0.539856
0.539856
0.539897
0.539937
0.539977
0.540018
0.540018
0.540058
0.540098
0.540139
0.540179
0.540179
0.54022
0.54026
0.540301
0.540341
0.540341
0.540382
0.540422
0.540463
0.540503
0.540503
0.540544
0.540585
0.540625
0.540666
0.540666
0.540707
0.540747
0.540788
0.540829
0.540829
0.54087
0.540911
0.540951
0.540992
0.540992
0.541033
0.541074
0.541115
0.541156
0.541156
0.541197
0.541238
0.541279
0.54132
0.54132
0.541361
0.541402
0.541443
0.541484
0.541484
0.541525
0.541566
0.541607
0.541648
0.541648
0.541689
0.541731
0.541772
0.541813
0.541813
0.541854
0.541896
0.541937
0.541978
0.541978
0.54202
0.542061
0.542102
0.542144
0.542144
0.542185
0.542227
0.542268
0.542309
0.542309
0.542351
0.542392
0.542434
0.542476
0.542476
0.542517
0.542559
0.5426
0.542642
0.542642
0.542684
0.542725
0.542767
0.542809
0.542809
0.54285
0.542892
0.542934
0.542976
0.542976
0.543018
0.543059
0.543101
0.543143
0.543143
0.543185
0.543227
0.543269
0.543311
0.543311
0.543353
0.543395
0.543437
0.543479
0.543479
0.543521
0.543563
0.543605
0.543647
0.543647
0.543689
0.543731
0.543774
0.543816
0.543816
0.543858
0.5439
0.543942
0.543985
0.543985
0.544027
0.544069
0.544112
0.544154
0.544154
0.544196
0.544239
0.544281
0.544324
0.544324
0.544366
0.544408
0.544451
0.544493
0.544493
0.544536
0.544579
0.544621
0.544664
0.544664
0.544706
0.544749
0.544792
0.544834
0.544834
0.544877
0.54492
0.544962
0.545005
0.545005
0.545048
0.545091
0.545133
0.545176
0.545176
0.545219
0.545262
0.545305
0.545348
0.545348
0.545391
0.545434
0.545476
0.545519
0.545519
0.545562
0.545605
0.545649
0.545692
0.545692
0.545735
0.545778
0.545821
0.545864
0.545864
0.545907
0.54595
0.545994
0.546037
0.546037
0.54608
0.546123
0.546166
0.54621
0.54621
0.546253
0.546296
0.54634
0.546383
0.546383
0.546427
0.54647
0.546513
0.546557
0.546557
0.5466
0.546644
0.546687
0.546731
0.546731
0.546774
0.546818
0.546862
0.546905
0.546905
0.546949
0.546992
0.547036
0.54708
0.54708
0.547123
0.547167
0.547211
0.547255
0.547255
0.547298
0.547342
0.547386
0.54743
0.54743
0.547474
0.547518
0.547562
0.547606
0.547606
0.547649
0.547693
0.547737
0.547781
0.547781
0.547825
0.547869
0.547913
0.547958
0.547958
0.548002
0.548046
0.54809
0.548134
0.548134
0.548178
0.548222
0.548267
0.548311
0.548311
0.548355
0.548399
0.548444
0.548488
0.548488
0.548532
0.548577
0.548621
0.548665
0.548665
0.54871
0.548754
0.548799
0.548843
0.548843
0.548888
0.548932
0.548977
0.549021
0.549021
0.549066
0.54911
0.549155
0.5492
0.5492
0.549244
0.549289
0.549334
0.549378
0.549378
0.549423
0.549468
0.549513
0.549557
0.549557
0.549602
0.549647
0.549692
0.549737
0.549737
0.549781
0.549826
0.549871
0.549916
0.549916
0.549961
0.550006
0.550051
0.550096
0.550096
0.550141
0.550186
0.550231
0.550276
0.550276
0.550321
0.550367
0.550412
0.550457
0.550457
0.550502
0.550547
0.550593
0.550638
0.550638
0.550683
0.550728
0.550774
0.550819
0.550819
0.550864
0.55091
0.550955
0.551
0.551
0.551046
0.551091
0.551137
0.551182
0.551182
0.551228
0.551273
0.551319
0.551364
0.551364
0.55141
0.551455
0.551501
0.551547
0.551547
0.551592
0.551638
0.551684
0.551729
0.551729
0.551775
0.551821
0.551867
0.551912
0.551912
0.551958
0.552004
0.55205
0.552096
0.552096
0.552142
0.552188
0.552233
0.552279
0.552279
0.552325
0.552371
0.552417
0.552463
0.552463
0.552509
0.552555
0.552602
0.552648
0.552648
0.552694
0.55274
0.552786
0.552832
0.552832
0.552878
0.552925
0.552971
0.553017
0.553017
0.553063
0.55311
0.553156
0.553202
0.553202
0.553249
0.553295
0.553341
0.553388
0.553388
0.553434
0.553481
0.553527
0.553574
0.553574
0.55362
0.553667
0.553713
0.55376
0.55376
0.553806
0.553853
0.553899
0.553946
0.553946
0.553993
0.554039
0.554086
0.554133
0.554133
0.554179
0.554226
0.554273
0.55432
0.55432
0.554367
0.554413
0.55446
0.554507
0.554507
0.554554
0.554601
0.554648
0.554695
0.554695
0.554742
0.554789
0.554836
0.554883
0.554883
0.55493
0.554977
0.555024
0.555071
0.555071
0.555118
0.555165
0.555212
0.555259
0.555259
0.555307
0.555354
0.555401
0.555448
0.555448
0.555496
0.555543
0.55559
0.555637
0.555637
0.555685
0.555732
0.55578
0.555827
0.555827
0.555874
0.555922
0.555969
0.556017
0.556017
0.556064
0.556112
0.556159
0.556207
0.556207
0.556254
0.556302
0.55635
0.556397
0.556397
0.556445
0.556492
0.55654
0.556588
0.556588
0.556636
0.556683
0.556731
0.556779
0.556779
0.556827
0.556874
0.556922
0.55697
0.55697
0.557018
0.557066
0.557114
0.557162
0.557162
0.55721
0.557258
0.557306
0.557354
0.557354
0.557402
0.55745
0.557498
0.557546
0.557546
0.557594
0.557642
0.55769
0.557738
0.557738
0.557786
0.557835
0.557883
0.557931
0.557931
0.557979
0.558028
0.558076
0.558124
0.558124
0.558172
0.558221
0.558269
0.558318
0.558318
0.558366
0.558414
0.558463
0.558511
0.558511
0.55856
0.558608
0.558657
0.558705
0.558705
0.558754
0.558802
0.558851
0.5589
0.5589
0.558948
0.558997
0.559046
0.559094
0.559094
0.559143
0.559192
0.55924
0.559289
0.559289
0.559338
0.559387
0.559436
0.559484
0.559484
0.559533
0.559582
0.559631
0.55968
0.55968
0.559729
0.559778
0.559827
0.559876
0.559876
0.559925
0.559974
0.560023
0.560072
0.560072
0.560121
0.56017
0.560219
0.560268
0.560268
0.560317
0.560367
0.560416
0.560465
0.560465
0.560514
0.560563
0.560613
0.560662
0.560662
0.560711
0.560761
0.56081
0.560859
0.560859
0.560909
0.560958
0.561007
0.561057
0.561057
0.561106
0.561156
0.561205
0.561255
0.561255
0.561304
0.561354
0.561403
0.561453
0.561453
0.561503
0.561552
0.561602
0.561652
0.561652
0.561701
0.561751
0.561801
0.56185
0.56185
0.5619
0.56195
0.562
0.562049
0.562049
0.562099
0.562149
0.562199
0.562249
0.562249
0.562299
0.562349
0.562399
0.562449
0.562449
0.562499
0.562549
0.562599
0.562649
0.562649
0.562699
0.562749
0.562799
0.562849
0.562849
0.562899
0.562949
0.562999
0.56305
0.56305
0.5631
0.56315
0.5632
0.563251
0.563251
0.563301
0.563351
0.563401
0.563452
0.563452
0.563502
0.563552
0.563603
0.563653
0.563653
0.563704
0.563754
0.563805
0.563855
0.563855
0.563906
0.563956
0.564007
0.564057
0.564057
0.564108
0.564158
0.564209
0.56426
0.56426
0.56431
0.564361
0.564412
0.564462
0.564462
0.564513
0.564564
0.564615
0.564666
0.564666
0.564716
0.564767
0.564818
0.564869
0.564869
0.56492
0.564971
0.565022
0.565073
0.565073
0.565123
0.565174
0.565225
0.565276
0.565276
0.565327
0.565379
0.56543
0.565481
0.565481
0.565532
0.565583
0.565634
0.565685
0.565685
0.565736
0.565788
0.565839
0.56589
0.56589
0.565941
0.565993
0.566044
0.566095
0.566095
0.566147
0.566198
0.566249
0.566301
0.566301
0.566352
0.566404
0.566455
0.566507
0.566507
0.566558
0.56661
0.566661
0.566713
0.566713
0.566764
0.566816
0.566867
0.566919
0.566919
0.566971
0.567022
0.567074
0.567126
0.567126
0.567177
0.567229
0.567281
0.567333
0.567333
0.567384
0.567436
0.567488
0.56754
0.56754
0.567592
0.567644
0.567696
0.567748
0.567748
0.5678
0.567851
0.567903
0.567955
0.567955
0.568007
0.56806
0.568112
0.568164
0.568164
0.568216
0.568268
0.56832
0.568372
0.568372
0.568424
0.568477
0.568529
0.568581
0.568581
0.568633
0.568686
0.568738
0.56879
0.56879
0.568842
0.568895
0.568947
0.569
0.569
0.569052
0.569104
0.569157
0.569209
0.569209
0.569262
0.569314
0.569367
0.569419
0.569419
0.569472
0.569524
0.569577
0.56963
0.56963
0.569682
0.569735
0.569788
0.56984
0.56984
0.569893
0.569946
0.569998
0.570051
0.570051
0.570104
0.570157
0.57021
0.570262
0.570262
0.570315
0.570368
0.570421
0.570474
0.570474
0.570527
0.57058
0.570633
0.570686
0.570686
0.570739
0.570792
0.570845
0.570898
0.570898
0.570951
0.571004
0.571057
0.571111
0.571111
0.571164
0.571217
0.57127
0.571323
0.571323
0.571377
0.57143
0.571483
0.571536
0.571536
0.57159
0.571643
0.571696
0.57175
0.57175
0.571803
0.571857
0.57191
0.571963
0.571963
0.572017
0.57207
0.572124
0.572178
0.572178
0.572231
0.572285
0.572338
0.572392
0.572392
0.572445
0.572499
0.572553
0.572606
0.572606
0.57266
0.572714
0.572768
0.572821
0.572821
0.572875
0.572929
0.572983
0.573037
0.573037
0.57309
0.573144
0.573198
0.573252
0.573252
0.573306
0.57336
0.573414
0.573468
0.573468
0.573522
0.573576
0.57363
0.573684
0.573684
0.573738
0.573792
0.573846
0.573901
0.573901
0.573955
0.574009
0.574063
0.574117
0.574117
0.574172
0.574226
0.57428
0.574334
0.574334
0.574389
0.574443
0.574497
0.574552
0.574552
0.574606
0.574661
0.574715
0.574769
0.574769
0.574824
0.574878
0.574933
0.574987
0.574987
0.575042
0.575097
0.575151
0.575206
0.575206
0.57526
0.575315
0.57537
0.575424
0.575424
0.575479
0.575534
0.575589
0.575643
0.575643
0.575698
0.575753
0.575808
0.575863
0.575863
0.575917
0.575972
0.576027
0.576082
0.576082
0.576137
0.576192
0.576247
0.576302
0.576302
0.576357
0.576412
0.576467
0.576522
0.576522
0.576577
0.576632
0.576687
0.576743
0.576743
0.576798
0.576853
0.576908
0.576963
0.576963
0.577019
0.577074
0.577129
0.577184
0.577184
0.57724
0.577295
0.57735
0.577406
0.577406
0.577461
0.577517
0.577572
0.577627
0.577627
0.577683
0.577738
0.577794
0.577849
0.577849
0.577905
0.577961
0.578016
0.578072
0.578072
0.578127
0.578183
0.578239
0.578294
0.578294
0.57835
0.578406
0.578462
0.578517
0.578517
0.578573
0.578629
0.578685
0.578741
0.578741
0.578796
0.578852
0.578908
0.578964
0.578964
0.57902