<?xml version="1.0"?>
<VTKFile type="UnstructuredGrid" version="0.1" byte_order="LittleEndian">
<UnstructuredGrid>
<Piece NumberOfPoints="5000" NumberOfCells="4000">
<PointData Scalars="Reaction 0">
<DataArray type="Float32" Name="Reaction 0" format="ascii">
0.901348
0.901348
0.901348
0.901348
0.901348
0.901348
0.901348
0.901348
0.901348
0.901348
0.901348
0.901348
0.901348
0.901348
0.901348
0.901348
0.901348
0.901348
0.901348
0.901348
0.901348
0.901348
0.901349
0.901349
0.901349
0.901349
0.901349
0.901349
0.901349
0.901349
0.901349
0.901349
0.901349
0.90135
0.90135
0.90135
0.90135
0.90135
0.90135
0.90135
0.90135
0.901351
0.901351
0.901351
0.901351
0.901351
0.901351
0.901352
0.901352
0.901352
0.901352
0.901352
0.901352
0.901353
0.901353
0.901353
0.901353
0.901353
0.901354
0.901354
0.901354
0.901354
0.901354
0.901355
0.901355
0.901355
0.901355
0.901356
0.901356
0.901356
0.901356
0.901356
0.901357
0.901357
0.901357
0.901357
0.901358
0.901358
0.901358
0.901359
0.901359
0.901359
0.901359
0.90136
0.90136
0.90136
0.901361
0.901361
0.901361
0.901362
0.901362
0.901362
0.901363
0.901363
0.901363
0.901363
0.901364
0.901364
0.901365
0.901365
0.901365
0.901365
0.901366
0.901366
0.901367
0.901367
0.901367
0.901368
0.901368
0.901369
0.901369
0.901369
0.90137
0.90137
0.901371
0.901371
0.901371
0.901372
0.901372
0.901373
0.901373
0.901373
0.901374
0.901374
0.901375
0.901375
0.901375
0.901376
0.901376
0.901377
0.901377
0.901378
0.901378
0.901379
0.901379
0.901379
0.90138
0.901381
0.901381
0.901382
0.901382
0.901382
0.901383
0.901384
0.901384
0.901384
0.901385
0.901386
0.901386
0.901387
0.901387
0.901387
0.901388
0.901389
0.901389
0.901389
0.90139
0.901391
0.901391
0.901392
0.901392
0.901393
0.901394
0.901394
0.901395
0.901395
0.901396
0.901396
0.901397
0.901398
0.901398
0.901399
0.901399
0.9014
0.901401
0.901401
0.901402
0.901402
0.901403
0.901404
0.901404
0.901405
0.901406
0.901406
0.901407
0.901407
0.901408
0.901409
0.90141
0.90141
0.90141
0.901411
0.901412
0.901413
0.901414
0.901414
0.901415
0.901416
0.901416
0.901417
0.901417
0.901418
0.901419
0.90142
0.901421
0.901421
0.901422
0.901423
0.901423
0.901424
0.901424
0.901425
0.901426
0.901427
0.901428
0.901428
0.901429
0.90143
0.901431
0.901432
0.901432
0.901433
0.901434
0.901435
0.901436
0.901436
0.901437
0.901438
0.901439
0.90144
0.90144
0.901441
0.901442
0.901443
0.901444
0.901444
0.901445
0.901446
0.901447
0.901448
0.901448
0.901449
0.90145
0.901451
0.901452
0.901452
0.901453
0.901454
0.901455
0.901456
0.901456
0.901457
0.901459
0.90146
0.901461
0.901461
0.901462
0.901463
0.901464
0.901465
0.901465
0.901466
0.901468
0.901469
0.90147
0.90147
0.901471
0.901472
0.901473
0.901474
0.901474
0.901476
0.901477
0.901478
0.901479
0.901479
0.90148
0.901482
0.901483
0.901484
0.901484
0.901485
0.901486
0.901488
0.901489
0.901489
0.90149
0.901491
0.901493
0.901494
0.901494
0.901495
0.901496
0.901498
0.901499
0.901499
0.9015
0.901502
0.901503
0.901504
0.901504
0.901505
0.901507
0.901508
0.901509
0.901509
0.901511
0.901512
0.901513
0.901515
0.901515
0.901516
0.901517
0.901519
0.90152
0.90152
0.901522
0.901523
0.901524
0.901526
0.901526
0.901527
0.901529
0.90153
0.901531
0.901531
0.901533
0.901534
0.901536
0.901537
0.901537
0.901538
0.90154
0.901541
0.901543
0.901543
0.901544
0.901546
0.901547
0.901549
0.901549
0.90155
0.901552
0.901553
0.901555
0.901555
0.901556
0.901558
0.901559
0.901561
0.901561
0.901562
0.901564
0.901565
0.901567
0.901567
0.901568
0.90157
0.901571
0.901573
0.901573
0.901575
0.901576
0.901578
0.901579
0.901579
0.901581
0.901582
0.901584
0.901586
0.901586
0.901587
0.901589
0.90159
0.901592
0.901592
0.901594
0.901595
0.901597
0.901599
0.901599
0.9016
0.901602
0.901604
0.901605
0.901605
0.901607
0.901609
0.90161
0.901612
0.901612
0.901614
0.901615
0.901617
0.901619
0.901619
0.901621
0.901622
0.901624
0.901626
0.901626
0.901627
0.901629
0.901631
0.901633
0.901633
0.901635
0.901636
0.901638
0.90164
0.90164
0.901642
0.901643
0.901645
0.901647
0.901647
0.901649
0.901651
0.901652
0.901654
0.901654
0.901656
0.901658
0.90166
0.901662
0.901662
0.901663
0.901665
0.901667
0.901669
0.901669
0.901671
0.901673
0.901675
0.901676
0.901676
0.901678
0.90168
0.901682
0.901684
0.901684
0.901686
0.901688
0.90169
0.901692
0.901692
0.901694
0.901696
0.901698
0.9017
0.9017
0.901701
0.901703
0.901705
0.901707
0.901707
0.901709
0.901711
0.901713
0.901715
0.901715
0.901717
0.901719
0.901721
0.901723
0.901723
0.901725
0.901727
0.901729
0.901731
0.901731
0.901733
0.901736
0.901738
0.90174
0.90174
0.901742
0.901744
0.901746
0.901748
0.901748
0.90175
0.901752
0.901754
0.901756
0.901756
0.901758
0.90176
0.901763
0.901765
0.901765
0.901767
0.901769
0.901771
0.901773
0.901773
0.901775
0.901778
0.90178
0.901782
0.901782
0.901784
0.901786
0.901788
0.901791
0.901791
0.901793
0.901795
0.901797
0.901799
0.901799
0.901802
0.901804
0.901806
0.901808
0.901808
0.901811
0.901813
0.901815
0.901817
0.901817
0.90182
0.901822
0.901824
0.901826
0.901826
0.901829
0.901831
0.901833
0.901835
0.901835
0.901838
0.90184
0.901842
0.901845
0.901845
0.901847
0.901849
0.901852
0.901854
0.901854
0.901856
0.901859
0.901861
0.901863
0.901863
0.901866
0.901868
0.901871
0.901873
0.901873
0.901875
0.901878
0.90188
0.901882
0.901882
0.901885
0.901887
0.90189
0.901892
0.901892
0.901895
0.901897
0.901899
0.901902
0.901902
0.901904
0.901907
0.901909
0.901912
0.901912
0.901914
0.901917
0.901919
0.901922
0.901922
0.901924
0.901927
0.901929
0.901932
0.901932
0.901934
0.901937
0.901939
0.901942
0.901942
0.901944
0.901947
0.901949
0.901952
0.901952
0.901954
0.901957
0.90196
0.901962
0.901962
0.901965
0.901967
0.90197
0.901972
0.901972
0.901975
0.901978
0.90198
0.901983
0.901983
0.901986
0.901988
0.901991
0.901993
0.901993
0.901996
0.901999
0.902001
0.902004
0.902004
0.902007
0.902009
0.902012
0.902015
0.902015
0.902017
0.90202
0.902023
0.902025
0.902025
0.902028
0.902031
0.902034
0.902036
0.902036
0.902039
0.902042
0.902045
0.902047
0.902047
0.90205
0.902053
0.902056
0.902058
0.902058
0.902061
0.902064
0.902067
0.902069
0.902069
0.902072
0.902075
0.902078
0.902081
0.902081
0.902083
0.902086
0.902089
0.902092
0.902092
0.902095
0.902098
0.9021
0.902103
0.902103
0.902106
0.902109
0.902112
0.902115
0.902115
0.902118
0.90212
0.902123
0.902126
0.902126
0.902129
0.902132
0.902135
0.902138
0.902138
0.902141
0.902144
0.902147
0.90215
0.90215
0.902153
0.902155
0.902158
0.902161
0.902161
0.902164
0.902167
0.90217
0.902173
0.902173
0.902176
0.902179
0.902182
0.902185
0.902185
0.902188
0.902191
0.902194
0.902197
0.902197
0.9022
0.902203
0.902206
0.902209
0.902209
0.902212
0.902215
0.902219
0.902222
0.902222
0.902225
0.902228
0.902231
0.902234
0.902234
0.902237
0.90224
0.902243
0.902246
0.902246
0.902249
0.902253
0.902256
0.902259
0.902259
0.902262
0.902265
0.902268
0.902271
0.902271
0.902275
0.902278
0.902281
0.902284
0.902284
0.902287
0.90229
0.902294
0.902297
0.902297
0.9023
0.902303
0.902306
0.90231
0.90231
0.902313
0.902316
0.902319
0.902322
0.902322
0.902326
0.902329
0.902332
0.902335
0.902335
0.902339
0.902342
0.902345
0.902348
0.902348
0.902352
0.902355
0.902358
0.902362
0.902362
0.902365
0.902368
0.902372
0.902375
0.902375
0.902378
0.902382
0.902385
0.902388
0.902388
0.902392
0.902395
0.902398
0.902402
0.902402
0.902405
0.902408
0.902412
0.902415
0.902415
0.902419
0.902422
0.902425
0.902429
0.902429
0.902432
0.902436
0.902439
0.902442
0.902442
0.902446
0.902449
0.902453
0.902456
0.902456
0.90246
0.902463
0.902466
0.90247
0.90247
0.902473
0.902477
0.90248
0.902484
0.902484
0.902487
0.902491
0.902494
0.902498
0.902498
0.902501
0.902505
0.902508
0.902512
0.902512
0.902515
0.902519
0.902523
0.902526
0.902526
0.90253
0.902533
0.902537
0.90254
0.90254
0.902544
0.902548
0.902551
0.902555
0.902555
0.902558
0.902562
0.902566
0.902569
0.902569
0.902573
0.902576
0.90258
0.902584
0.902584
0.902587
0.902591
0.902595
0.902598
0.902598
0.902602
0.902606
0.902609
0.902613
0.902613
0.902617
0.90262
0.902624
0.902628
0.902628
0.902631
0.902635
0.902639
0.902643
0.902643
0.902646
0.90265
0.902654
0.902657
0.902657
0.902661
0.902665
0.902669
0.902672
0.902672
0.902676
0.90268
0.902684
0.902688
0.902688
0.902691
0.902695
0.902699
0.902703
0.902703
0.902707
0.90271
0.902714
0.902718
0.902718
0.902722
0.902726
0.90273
0.902733
0.902733
0.902737
0.902741
0.902745
0.902749
0.902749
0.902753
0.902757
0.90276
0.902764
0.902764
0.902768
0.902772
0.902776
0.90278
0.90278
0.902784
0.902788
0.902792
0.902796
0.902796
0.9028
0.902803
0.902807
0.902811
0.902811
0.902815
0.902819
0.902823
0.902827
0.902827
0.902831
0.902835
0.902839
0.902843
0.902843
0.902847
0.902851
0.902855
0.902859
0.902859
0.902863
0.902867
0.902871
0.902875
0.902875
0.902879
0.902883
0.902887
0.902891
0.902891
0.902896
0.9029
0.902904
0.902908
0.902908
0.902912
0.902916
0.90292
0.902924
0.902924
0.902928
0.902932
0.902936
0.902941
0.902941
0.902945
0.902949
0.902953
0.902957
0.902957
0.902961
0.902965
0.902969
0.902974
0.902974
0.902978
0.902982
0.902986
0.90299
0.90299
0.902995
0.902999
0.903003
0.903007
0.903007
0.903011
0.903016
0.90302
0.903024
0.903024
0.903028
0.903032
0.903037
0.903041
0.903041
0.903045
0.903049
0.903054
0.903058
0.903058
0.903062
0.903066
0.903071
0.903075
0.903075
0.903079
0.903084
0.903088
0.903092
0.903092
0.903097
0.903101
0.903105
0.903109
0.903109
0.903114
0.903118
0.903122
0.903127
0.903127
0.903131
0.903136
0.90314
0.903144
0.903144
0.903149
0.903153
0.903157
0.903162
0.903162
0.903166
0.903171
0.903175
0.903179
0.903179
0.903184
0.903188
0.903193
0.903197
0.903197
0.903202
0.903206
0.90321
0.903215
0.903215
0.903219
0.903224
0.903228
0.903233
0.903233
0.903237
0.903242
0.903246
0.903251
0.903251
0.903255
0.90326
0.903264
0.903269
0.903269
0.903273
0.903278
0.903282
0.903287
0.903287
0.903291
0.903296
0.9033
0.903305
0.903305
0.903309
0.903314
0.903319
0.903323
0.903323
0.903328
0.903332
0.903337
0.903342
0.903342
0.903346
0.903351
0.903355
0.90336
0.90336
0.903365
0.903369
0.903374
0.903378
0.903378
0.903383
0.903388
0.903392
0.903397
0.903397
0.903402
0.903406
0.903411
0.903416
0.903416
0.90342
0.903425
0.90343
0.903435
0.903435
0.903439
0.903444
0.903449
0.903453
0.903453
0.903458
0.903463
0.903468
0.903472
0.903472
0.903477
0.903482
0.903487
0.903491
0.903491
0.903496
0.903501
0.903506
0.90351
0.90351
0.903515
0.90352
0.903525
0.90353
0.90353
0.903534
0.903539
0.903544
0.903549
0.903549
0.903554
0.903558
0.903563
0.903568
0.903568
0.903573
0.903578
0.903583
0.903588
0.903588
0.903592
0.903597
0.903602
0.903607
0.903607
0.903612
0.903617
0.903622
0.903627
0.903627
0.903632
0.903636
0.903641
0.903646
0.903646
0.903651
0.903656
0.903661
0.903666
0.903666
0.903671
0.903676
0.903681
0.903686
0.903686
0.903691
0.903696
0.903701
0.903706
0.903706
0.903711
0.903716
0.903721
0.903726
0.903726
0.903731
0.903736
0.903741
0.903746
0.903746
0.903751
0.903756
0.903761
0.903766
0.903766
0.903771
0.903776
0.903781
0.903786
0.903786
0.903791
0.903796
0.903802
0.903807
0.903807
0.903812
0.903817
0.903822
0.903827
0.903827
0.903832
0.903837
0.903842
0.903847
0.903847
0.903853
0.903858
0.903863
0.903868
0.903868
0.903873
0.903878
0.903884
0.903889
0.903889
0.903894
0.903899
0.903904
0.903909
0.903909
0.903915
0.90392
0.903925
0.90393
0.90393
0.903935
0.903941
0.903946
0.903951
0.903951
0.903956
0.903962
0.903967
0.903972
0.903972
0.903977
0.903983
0.903988
0.903993
0.903993
0.903998
0.904004
0.904009
0.904014
0.904014
0.90402
0.904025
0.90403
0.904035
0.904035
0.904041
0.904046
0.904051
0.904057
0.904057
0.904062
0.904067
0.904073
0.904078
0.904078
0.904084
0.904089
0.904094
0.9041
0.9041
0.904105
0.90411
0.904116
0.904121
0.904121
0.904127
0.904132
0.904137
0.904143
0.904143
0.904148
0.904154
0.904159
0.904164
0.904164
0.90417
0.904175
0.904181
0.904186
0.904186
0.904192
0.904197
0.904203
0.904208
0.904208
0.904214
0.904219
0.904225
0.90423
0.90423
0.904236
0.904241
0.904247
0.904252
0.904252
0.904258
0.904263
0.904269
0.904274
0.904274
0.90428
0.904285
0.904291
0.904296
0.904296
0.904302
0.904308
0.904313
0.904319
0.904319
0.904324
0.90433
0.904335
0.904341
0.904341
0.904347
0.904352
0.904358
0.904363
0.904363
0.904369
0.904375
0.90438
0.904386
0.904386
0.904392
0.904397
0.904403
0.904409
0.904409
0.904414
0.90442
0.904426
0.904431
0.904431
0.904437
0.904443
0.904448
0.904454
0.904454
0.90446
0.904465
0.904471
0.904477
0.904477
0.904482
0.904488
0.904494
0.9045
0.9045
0.904505
0.904511
0.904517
0.904523
0.904523
0.904528
0.904534
0.90454
0.904546
0.904546
0.904552
0.904557
0.904563
0.904569
0.904569
0.904575
0.90458
0.904586
0.904592
0.904592
0.904598
0.904604
0.90461
0.904615
0.904615
0.904621
0.904627
0.904633
0.904639
0.904639
0.904645
0.904651
0.904656
0.904662
0.904662
0.904668
0.904674
0.90468
0.904686
0.904686
0.904692
0.904698
0.904704
0.904709
0.904709
0.904715
0.904721
0.904727
0.904733
0.904733
0.904739
0.904745
0.904751
0.904757
0.904757
0.904763
0.904769
0.904775
0.904781
0.904781
0.904787
0.904793
0.904799
0.904805
0.904805
0.904811
0.904817
0.904823
0.904829
0.904829
0.904835
0.904841
0.904847
0.904853
0.904853
0.904859
0.904865
0.904871
0.904877
0.904877
0.904883
0.904889
0.904895
0.904901
0.904901
0.904907
0.904914
0.90492
0.904926
0.904926
0.904932
0.904938
0.904944
0.90495
0.90495
0.904956
0.904962
0.904968
0.904975
0.904975
0.904981
0.904987
0.904993
0.904999
0.904999
0.905005
0.905012
0.905018
0.905024
0.905024
0.90503
0.905036
0.905042
0.905049
0.905049
0.905055
0.905061
0.905067
0.905073
0.905073
0.90508
0.905086
0.905092
0.905098
0.905098
0.905105
0.905111
0.905117
0.905123
0.905123
0.90513
0.905136
0.905142
0.905148
0.905148
0.905155
0.905161
0.905167
0.905173
0.905173
0.90518
0.905186
0.905192
0.905199
0.905199
0.905205
0.905211
0.905218
0.905224
0.905224
0.90523
0.905237
0.905243
0.905249
0.905249
0.905256
0.905262
0.905268
0.905275
0.905275
0.905281
0.905288
0.905294
0.9053
0.9053
0.905307
0.905313
0.90532
0.905326
0.905326
0.905332
0.905339
0.905345
0.905352
0.905352
0.905358
0.905364
0.905371
0.905377
0.905377
0.905384
0.90539
0.905397
0.905403
0.905403
0.90541
0.905416
0.905423
0.905429
0.905429
0.905436
0.905442
0.905449
0.905455
0.905455
0.905462
0.905468
0.905475
0.905481
0.905481
0.905488
0.905494
0.905501
0.905507
0.905507
0.905514
0.90552
0.905527
0.905534
0.905534
0.90554
0.905547
0.905553
0.90556
0.90556
0.905566
0.905573
0.90558
0.905586
0.905586
0.905593
0.905599
0.905606
0.905613
0.905613
0.905619
0.905626
0.905633
0.905639
0.905639
0.905646
0.905653
0.905659
0.905666
0.905666
0.905673
0.905679
0.905686
0.905693
0.905693
0.905699
0.905706
0.905713
0.905719
0.905719
0.905726
0.905733
0.905739
0.905746
0.905746
0.905753
0.90576
0.905766
0.905773
0.905773
0.90578
0.905787
0.905793
0.9058
0.9058
0.905807
0.905814
0.90582
0.905827
0.905827
0.905834
0.905841
0.905848
0.905854
0.905854
0.905861
0.905868
0.905875
0.905882
0.905882
0.905888
0.905895
0.905902
0.905909
0.905909
0.905916
0.905923
0.905929
0.905936
0.905936
0.905943
0.90595
0.905957
0.905964
0.905964
0.905971
0.905978
0.905984
0.905991
0.905991
0.905998
0.906005
0.906012
0.906019
0.906019
0.906026
0.906033
0.90604
0.906047
0.906047
0.906054
0.906061
0.906067
0.906074
0.906074
0.906081
0.906088
0.906095
0.906102
0.906102
0.906109
0.906116
0.906123
0.90613
0.90613
0.906137
0.906144
0.906151
0.906158
0.906158
0.906165
0.906172
0.906179
0.906186
0.906186
0.906193
0.9062
0.906207
0.906214
0.906214
0.906222
0.906229
0.906236
0.906243
0.906243
0.90625
0.906257
0.906264
0.906271
0.906271
0.906278
0.906285
0.906292
0.906299
0.906299
0.906307
0.906314
0.906321
0.906328
0.906328
0.906335
0.906342
0.906349
0.906356
0.906356
0.906364
0.906371
0.906378
0.906385
0.906385
0.906392
0.906399
0.906407
0.906414
0.906414
0.906421
0.906428
0.906435
0.906442
0.906442
0.90645
0.906457
0.906464
0.906471
0.906471
0.906479
0.906486
0.906493
0.9065
0.9065
0.906508
0.906515
0.906522
0.906529
0.906529
0.906537
0.906544
0.906551
0.906558
0.906558
0.906566
0.906573
0.90658
0.906587
0.906587
0.906595
0.906602
0.906609
0.906617
0.906617
0.906624
0.906631
0.906639
0.906646
0.906646
0.906653
0.906661
0.906668
0.906675
0.906675
0.906683
0.90669
0.906697
0.906705
0.906705
0.906712
0.90672
0.906727
0.906734
0.906734
0.906742
0.906749
0.906757
0.906764
0.906764
0.906771
0.906779
0.906786
0.906794
0.906794
0.906801
0.906809
0.906816
0.906823
0.906823
0.906831
0.906838
0.906846
0.906853
0.906853
0.906861
0.906868
0.906876
0.906883
0.906883
0.906891
0.906898
0.906906
0.906913
0.906913
0.906921
0.906928
0.906936
0.906943
0.906943
0.906951
0.906958
0.906966
0.906973
0.906973
0.906981
0.906988
0.906996
0.907003
0.907003
0.907011
0.907019
0.907026
0.907034
0.907034
0.907041
0.907049
0.907057
0.907064
0.907064
0.907072
0.907079
0.907087
0.907095
0.907095
0.907102
0.90711
0.907117
0.907125
0.907125
0.907133
0.90714
0.907148
0.907156
0.907156
0.907163
0.907171
0.907179
0.907186
0.907186
0.907194
0.907202
0.907209
0.907217
0.907217
0.907225
0.907232
0.90724
0.907248
0.907248
0.907256
0.907263
0.907271
0.907279
0.907279
0.907286
0.907294
0.907302
0.90731
0.90731
0.907317
0.907325
0.907333
0.907341
0.907341
0.907348
0.907356
0.907364
0.907372
0.907372
0.90738
0.907387
0.907395
0.907403
0.907403
0.907411
0.907419
0.907426
0.907434
0.907434
0.907442
0.90745
0.907458
0.907465
0.907465
0.907473
0.907481
0.907489
0.907497
0.907497
0.907505
0.907513
0.90752
0.907528
0.907528
0.907536
0.907544
0.907552
0.90756
0.90756
0.907568
0.907576
0.907584
0.907592
0.907592
0.907599
0.907607
0.907615
0.907623
0.907623
0.907631
0.907639
0.907647
0.907655
0.907655
0.907663
0.907671
0.907679
0.907687
0.907687
0.907695
0.907703
0.907711
0.907719
0.907719
0.907727
0.907735
0.907743
0.907751
0.907751
0.907759
0.907767
0.907775
0.907783
0.907783
0.907791
0.907799
0.907807
0.907815
0.907815
0.907823
0.907831
0.907839
0.907847
0.907847
0.907855
0.907863
0.907871
0.907879
0.907879
0.907887
0.907896
0.907904
0.907912
0.907912
0.90792
0.907928
0.907936
0.907944
0.907944
0.907952
0.90796
0.907968
0.907977
0.907977
0.907985
0.907993
0.908001
0.908009
0.908009
0.908017
0.908025
0.908034
0.908042
0.908042
0.90805
0.908058
0.908066
0.908075
0.908075
0.908083
0.908091
0.908099
0.908107
0.908107
0.908116
0.908124
0.908132
0.90814
0.90814
0.908148
0.908157
0.908165
0.908173
0.908173
0.908181
0.90819
0.908198
0.908206
0.908206
0.908214
0.908223
0.908231
0.908239
0.908239
0.908247
0.908256
0.908264
0.908272
0.908272
0.908281
0.908289
0.908297
0.908306
0.908306
0.908314
0.908322
0.90833
0.908339
0.908339
0.908347
0.908355
0.908364
0.908372
0.908372
0.908381
0.908389
0.908397
0.908406
0.908406
0.908414
0.908422
0.908431
0.908439
0.908439
0.908448
0.908456
0.908464
0.908473
0.908473
0.908481
0.90849
0.908498
0.908506
0.908506
0.908515
0.908523
0.908532
0.90854
0.90854
0.908549
0.908557
0.908565
0.908574
0.908574
0.908582
0.908591
0.908599
0.908608
0.908608
0.908616
0.908625
0.908633
0.908642
0.908642
0.90865
0.908659
0.908667
0.908676
0.908676
0.908684
0.908693
0.908701
0.90871
0.90871
0.908718
0.908727
0.908735
0.908744
0.908744
0.908752
0.908761
0.90877
0.908778
0.908778
0.908787
0.908795
0.908804
0.908812
0.908812
0.908821
0.90883
0.908838
0.908847
0.908847
0.908855
0.908864
0.908873
0.908881
0.908881
0.90889
0.908898
0.908907
0.908916
0.908916
0.908924
0.908933
0.908942
0.90895
0.90895
0.908959
0.908968
0.908976
0.908985
0.908985
0.908994
0.909002
0.909011
0.90902
0.90902
0.909028
0.909037
0.909046
0.909054
0.909054
0.909063
0.909072
0.909081
0.909089
0.909089
0.909098
0.909107
0.909116
0.909124
0.909124
0.909133
0.909142
0.909151
0.909159
0.909159
0.909168
0.909177
0.909186
0.909194
0.909194
0.909203
0.909212
0.909221
0.909229
0.909229
0.909238
0.909247
0.909256
0.909265
0.909265
0.909274
0.909282
0.909291
0.9093
0.9093
0.909309
0.909318
0.909326
0.909335
0.909335
0.909344
0.909353
0.909362
0.909371
0.909371
0.90938
0.909388
0.909397
0.909406
0.909406
0.909415
0.909424
0.909433
0.909442
0.909442
0.909451
0.90946
0.909469
0.909477
0.909477
0.909486
0.909495
0.909504
0.909513
0.909513
0.909522
0.909531
0.90954
0.909549
0.909549
0.909558
0.909567
0.909576
0.909585
0.909585
0.909594
0.909603
0.909612
0.909621
0.909621
0.90963
0.909639
0.909648
0.909657
0.909657
0.909666
0.909675
0.909684
0.909693
0.909693
0.909702
0.909711
0.90972
0.909729
0.909729
0.909738
0.909747
0.909756
0.909765
0.909765
0.909774
0.909783
0.909792
0.909801
0.909801
0.90981
0.909819
0.909828
0.909838
0.909838
0.909847
0.909856
0.909865
0.909874
0.909874
0.909883
0.909892
0.909901
0.90991
0.90991
0.90992
0.909929
0.909938
0.909947
0.909947
0.909956
0.909965
0.909974
0.909984
0.909984
0.909993
0.910002
0.910011
0.91002
0.91002
0.910029
0.910039
0.910048
0.910057
0.910057
0.910066
0.910075
0.910085
0.910094
0.910094
0.910103
0.910112
0.910121
0.910131
0.910131
0.91014
0.910149
0.910158
0.910168
0.910168
0.910177
0.910186
0.910195
0.910205
0.910205
0.910214
0.910223
0.910232
0.910242
0.910242
0.910251
0.91026
0.91027
0.910279
0.910279
0.910288
0.910297
0.910307
0.910316
0.910316
0.910325
0.910335
0.910344
0.910353
0.910353
0.910363
0.910372
0.910381
0.910391
0.910391
0.9104
0.910409
0.910419
0.910428
0.910428
0.910438
0.910447
0.910456
0.910466
0.910466
0.910475
0.910484
0.910494
0.910503
0.910503
0.910513
0.910522
0.910531
0.910541
0.910541
0.91055
0.91056
0.910569
0.910579
0.910579
0.910588
0.910597
0.910607
0.910616
0.910616
0.910626
0.910635
0.910645
0.910654
0.910654
0.910664
0.910673
0.910683
0.910692
0.910692
0.910701
0.910711
0.91072
0.91073
0.91073
0.910739
0.910749
0.910758
0.910768
0.910768
0.910778
0.910787
0.910797
0.910806
0.910806
0.910816
0.910825
0.910835
0.910844
0.910844
0.910854
0.910863
0.910873
0.910883
0.910883
0.910892
0.910902
0.910911
0.910921
0.910921
0.91093
0.91094
0.91095
0.910959
0.910959
0.910969
0.910978
0.910988
0.910998
0.910998
0.911007
0.911017
0.911026
0.911036
0.911036
0.911046
0.911055
0.911065
0.911075
0.911075
0.911084
0.911094
0.911104
0.911113
0.911113
0.911123
0.911133
0.911142
0.911152
0.911152
0.911162
0.911171
0.911181
0.911191
0.911191
0.9112
0.91121
0.91122
0.91123
0.91123
0.911239
0.911249
0.911259
0.911268
0.911268
0.911278
0.911288
0.911298
0.911307
0.911307
0.911317
0.911327
0.911337
0.911346
0.911346
0.911356
0.911366
0.911376
0.911386
0.911386
0.911395
0.911405
0.911415
0.911425
0.911425
0.911435
0.911444
0.911454
0.911464
0.911464
0.911474
0.911484
0.911493
0.911503
0.911503
0.911513
0.911523
0.911533
0.911543
0.911543
0.911552
0.911562
0.911572
0.911582
0.911582
0.911592
0.911602
0.911612
0.911622
0.911622
0.911631
0.911641
0.911651
0.911661
0.911661
0.911671
0.911681
0.911691
0.911701
0.911701
0.911711
0.911721
0.91173
0.91174
0.91174
0.91175
0.91176
0.91177
0.91178
0.91178
0.91179
0.9118
0.91181
0.91182
0.91182
0.91183
0.91184
0.91185
0.91186
0.91186
0.91187
0.91188
0.91189
0.9119
0.9119
0.91191
0.91192
0.91193
0.91194
0.91194
0.91195
0.91196
0.91197
0.91198
0.91198
0.91199
0.912
0.91201
0.91202
0.91202
0.91203
0.91204
0.91205
0.91206
0.91206
0.91207
0.91208
0.91209
0.912101
0.912101
0.912111
0.912121
0.912131
0.912141
0.912141
0.912151
0.912161
0.912171
0.912181
0.912181
0.912191
0.912202
0.912212
0.912222
0.912222
0.912232
0.912242
0.912252
0.912262
0.912262
0.912272
0.912283
0.912293
0.912303
0.912303
0.912313
0.912323
0.912333
0.912344
0.912344
0.912354
0.912364
0.912374
0.912384
0.912384
0.912394
0.912405
0.912415
0.912425
0.912425
0.912435
0.912445
0.912456
0.912466
0.912466
0.912476
0.912486
0.912497
0.912507
0.912507
0.912517
0.912527
0.912538
0.912548
0.912548
0.912558
0.912568
0.912579
0.912589
0.912589
0.912599
0.912609
0.91262
0.91263
0.91263
0.91264
0.912651
0.912661
0.912671
0.912671
0.912681
0.912692
0.912702
0.912712
0.912712
0.912723
0.912733
0.912743
0.912754
0.912754
0.912764
0.912774
0.912785
0.912795
0.912795
0.912805
0.912816
0.912826
0.912836
0.912836
0.912847
0.912857
0.912868
0.912878
0.912878
0.912888
0.912899
0.912909
0.912919
0.912919
0.91293
0.91294
0.912951
0.912961
0.912961
0.912971
0.912982
0.912992
0.913003
0.913003
0.913013
0.913024
0.913034
0.913044
0.913044
0.913055
0.913065
0.913076
0.913086
0.913086
0.913097
0.913107
0.913118
0.913128
0.913128
0.913139
0.913149
0.91316
0.91317
0.91317
0.913181
0.913191
0.913202
0.913212
0.913212
0.913223
0.913233
0.913244
0.913254
0.913254
0.913265
0.913275
0.913286
0.913296
0.913296
0.913307
0.913317
0.913328
0.913338
0.913338
0.913349
0.91336
0.91337
0.913381
0.913381
0.913391
0.913402
0.913412
0.913423
0.913423
0.913434
0.913444
0.913455
0.913465
0.913465
0.913476
0.913487
0.913497
0.913508
0.913508
0.913518
0.913529
0.91354
0.91355
0.91355
0.913561
0.913571
0.913582
0.913593
0.913593
0.913603
0.913614
0.913625
0.913635
0.913635
0.913646
0.913657
0.913667
0.913678
0.913678
0.913689
0.913699
0.91371
0.913721
0.913721
0.913731
0.913742
0.913753
0.913764
0.913764
0.913774
0.913785
0.913796
0.913806
0.913806
0.913817
0.913828
0.913839
0.913849
0.913849
0.91386
0.913871
0.913882
0.913892
0.913892
0.913903
0.913914
0.913925
0.913935
0.913935
0.913946
0.913957
0.913968
0.913978
0.913978
0.913989
0.914
0.914011
0.914022
0.914022
0.914032
0.914043
0.914054
0.914065
0.914065
0.914076
0.914086
0.914097
0.914108
0.914108
0.914119
0.91413
0.914141
0.914151
0.914151
0.914162
0.914173
0.914184
0.914195
0.914195
0.914206
0.914217
0.914227
0.914238
0.914238
0.914249
0.91426
0.914271
0.914282
0.914282
0.914293
0.914304
0.914315
0.914325
0.914325
0.914336
0.914347
0.914358
0.914369
0.914369
0.91438
0.914391
0.914402
0.914413
0.914413
0.914424
0.914435
0.914446
0.914457
0.914457
0.914468
0.914479
0.914489
0.9145
0.9145
0.914511
0.914522
0.914533
0.914544
0.914544
0.914555
0.914566
0.914577
0.914588
0.914588
0.914599
0.91461
0.914621
0.914632
0.914632
0.914643
0.914654
0.914665
0.914676
0.914676
0.914687
0.914698
0.914709
0.91472
0.91472
0.914732
0.914743
0.914754
0.914765
0.914765
0.914776
0.914787
0.914798
0.914809
0.914809
0.91482
0.914831
0.914842
0.914853
0.914853
0.914864
0.914875
0.914886
0.914898
0.914898
0.914909
0.91492
0.914931
0.914942
0.914942
0.914953
0.914964
0.914975
0.914986
0.914986
0.914998
0.915009
0.91502
0.915031
0.915031
0.915042
0.915053
0.915064
0.915076
0.915076
0.915087
0.915098
0.915109
0.91512
0.91512
0.915131
0.915143
0.915154
0.915165
0.915165
0.915176
0.915187
0.915199
0.91521
0.91521
0.915221
0.915232
0.915243
0.915255
0.915255
0.915266
0.915277
0.915288
0.9153
0.9153
0.915311
0.915322
0.915333
0.915344
0.915344
0.915356
0.915367
0.915378
0.915389
0.915389
0.915401
0.915412
0.915423
0.915435
0.915435
0.915446
0.915457
0.915468
0.91548
0.91548
0.915491
0.915502
0.915514
0.915525
0.915525
0.915536
0.915547
0.915559
0.91557
0.91557
0.915581
0.915593
0.915604
0.915615
0.915615
0.915627
0.915638
0.915649
0.915661
0.915661
0.915672
0.915683
0.915695
0.915706
0.915706
0.915718
0.915729
0.91574
0.915752
0.915752
0.915763
0.915774
0.915786
0.915797
0.915797
0.915809
0.91582
0.915831
0.915843
0.915843
0.915854
0.915866
0.915877
0.915888
0.915888
0.9159
0.915911
0.915923
0.915934
0.915934
0.915946
0.915957
0.915968
0.91598
0.91598
0.915991
0.916003
0.916014
0.916026
0.916026
0.916037
0.916049
0.91606
0.916072
0.916072
0.916083
0.916095
0.916106
0.916118
0.916118
0.916129
0.916141
0.916152
0.916164
0.916164
0.916175
0.916187
0.916198
0.91621
0.91621
0.916221
0.916233
0.916244
0.916256
0.916256
0.916267
0.916279
0.91629
0.916302
0.916302
0.916313
0.916325
0.916337
0.916348
0.916348
0.91636
0.916371
0.916383
0.916394
0.916394
0.916406
0.916418
0.916429
0.916441
0.916441
0.916452
0.916464
0.916475
0.916487
0.916487
0.916499
0.91651
0.916522
0.916534
0.916534
0.916545
0.916557
0.916568
0.91658
0.91658
0.916592
0.916603
0.916615
0.916627
0.916627
0.916638
0.91665
0.916662
0.916673
0.916673
0.916685
0.916697
0.916708
0.91672
0.91672
0.916732
0.916743
0.916755
0.916767
0.916767
0.916778
0.91679
0.916802
0.916813
0.916813
0.916825
0.916837
0.916849
0.91686
0.91686
0.916872
0.916884
0.916895
0.916907
0.916907
0.916919
0.916931
0.916942
0.916954
0.916954
0.916966
0.916978
0.916989
0.917001
0.917001
0.917013
0.917025
0.917036
0.917048
0.917048
0.91706
0.917072
0.917083
0.917095
0.917095
0.917107
0.917119
0.917131
0.917142
0.917142
0.917154
0.917166
0.917178
0.91719
0.91719
0.917201
0.917213
0.917225
0.917237
0.917237
0.917249
0.917261
0.917272
0.917284
0.917284
0.917296
0.917308
0.91732
0.917332
0.917332
0.917344
0.917355
0.917367
0.917379
0.917379
0.917391
0.917403
0.917415
0.917427
0.917427
0.917438
0.91745
0.917462
0.917474
0.917474
0.917486
0.917498
0.91751
0.917522
0.917522
0.917534
0.917546
0.917558
0.917569
0.917569
0.917581
0.917593
0.917605
0.917617
0.917617
0.917629
0.917641
0.917653
0.917665
0.917665
0.917677
0.917689
0.917701
0.917713
0.917713
0.917725
0.917737
0.917749
0.917761
0.917761
0.917773
0.917785
0.917797
0.917809
0.917809
0.917821
0.917833
0.917845
0.917857
0.917857
0.917869
0.917881
0.917893
0.917905
0.917905
0.917917
0.917929
0.917941
0.917953
0.917953
0.917965
0.917977
0.917989
0.918001
0.918001
0.918013
0.918025
0.918037
0.918049
0.918049
0.918061
0.918073
0.918085
0.918097
0.918097
0.918109
0.918121
0.918134
0.918146
0.918146
0.918158
0.91817
0.918182
0.918194
0.918194
0.918206
0.918218
0.91823
0.918242
0.918242
0.918255
0.918267
0.918279
0.918291
0.918291
0.918303
0.918315
0.918327
0.918339
0.918339
0.918352
0.918364
0.918376
0.918388
0.918388
0.9184
0.918412
0.918424
0.918437
0.918437
0.918449
0.918461
0.918473
0.918485
0.918485
0.918497
0.91851
0.918522
0.918534
0.918534
0.918546
0.918558
0.918571
0.918583
0.918583
0.918595
0.918607
0.918619
0.918632
0.918632
0.918644
0.918656
0.918668
0.918681
0.918681
0.918693
0.918705
0.918717
0.91873
0.91873
0.918742
0.918754
0.918766
0.918779
0.918779
0.918791
0.918803
0.918815
0.918828
0.918828
0.91884
0.918852
0.918864
0.918877
0.918877
0.918889
0.918901
0.918914
0.918926
0.918926
0.918938
0.91895
0.918963
0.918975
0.918975
0.918987
0.919
0.919012
0.919024
0.919024
0.919037
0.919049
0.919061
0.919074
0.919074
0.919086
0.919098
0.919111
0.919123
0.919123
0.919135
0.919148
0.91916
0.919172
0.919172
0.919185
0.919197
0.919209
0.919222
0.919222
0.919234
0.919247
0.919259
0.919271
0.919271
0.919284
0.919296
0.919309
0.919321
0.919321
0.919333