<?xml version="1.0"?>
<VTKFile type="UnstructuredGrid" version="0.1" byte_order="LittleEndian">
<UnstructuredGrid>
<Piece NumberOfPoints="5000" NumberOfCells="4000">
<PointData Scalars="Reaction 0">
<DataArray type="Float32" Name="Reaction 0" format="ascii">
0.839288
0.839288
0.839288
0.839288
0.839288
0.839288
0.839288
0.839288
0.839288
0.839288
0.839288
0.839289
0.839289
0.839289
0.839289
0.839289
0.839289
0.839289
0.839289
0.839289
0.839289
0.839289
0.839289
0.83929
0.83929
0.83929
0.83929
0.83929
0.83929
0.83929
0.83929
0.839291
0.839291
0.839291
0.839291
0.839291
0.839291
0.839292
0.839292
0.839292
0.839292
0.839292
0.839293
0.839293
0.839293
0.839293
0.839294
0.839294
0.839294
0.839294
0.839294
0.839295
0.839295
0.839295
0.839296
0.839296
0.839296
0.839296
0.839297
0.839297
0.839297
0.839297
0.839298
0.839298
0.839299
0.839299
0.839299
0.839299
0.8393
0.8393
0.8393
0.839301
0.839301
0.839302
0.839302
0.839302
0.839303
0.839303
0.839304
0.839304
0.839304
0.839305
0.839305
0.839306
0.839306
0.839306
0.839307
0.839307
0.839308
0.839308
0.839308
0.839309
0.839309
0.83931
0.83931
0.83931
0.839311
0.839312
0.839312
0.839313
0.839313
0.839313
0.839314
0.839315
0.839315
0.839315
0.839316
0.839317
0.839317
0.839318
0.839318
0.839319
0.839319
0.83932
0.839321
0.839321
0.839322
0.839322
0.839323
0.839324
0.839324
0.839324
0.839325
0.839326
0.839327
0.839327
0.839327
0.839328
0.839329
0.83933
0.83933
0.839331
0.839331
0.839332
0.839333
0.839333
0.839334
0.839335
0.839336
0.839337
0.839337
0.839337
0.839338
0.839339
0.83934
0.83934
0.839341
0.839342
0.839343
0.839344
0.839344
0.839345
0.839346
0.839346
0.839347
0.839347
0.839348
0.839349
0.83935
0.839351
0.839351
0.839352
0.839353
0.839354
0.839355
0.839355
0.839356
0.839357
0.839358
0.839359
0.839359
0.83936
0.839362
0.839363
0.839364
0.839364
0.839365
0.839366
0.839367
0.839368
0.839368
0.839369
0.83937
0.839371
0.839373
0.839373
0.839374
0.839375
0.839376
0.839377
0.839377
0.839378
0.83938
0.839381
0.839382
0.839382
0.839383
0.839384
0.839386
0.839387
0.839387
0.839388
0.839389
0.83939
0.839392
0.839392
0.839393
0.839394
0.839396
0.839397
0.839397
0.839398
0.839399
0.839401
0.839402
0.839402
0.839403
0.839405
0.839406
0.839407
0.839407
0.839409
0.83941
0.839412
0.839413
0.839413
0.839414
0.839416
0.839417
0.839419
0.839419
0.83942
0.839421
0.839423
0.839424
0.839424
0.839426
0.839427
0.839429
0.83943
0.83943
0.839432
0.839433
0.839435
0.839436
0.839436
0.839438
0.839439
0.839441
0.839442
0.839442
0.839444
0.839445
0.839447
0.839448
0.839448
0.83945
0.839452
0.839453
0.839455
0.839455
0.839456
0.839458
0.83946
0.839461
0.839461
0.839463
0.839464
0.839466
0.839468
0.839468
0.839469
0.839471
0.839473
0.839474
0.839474
0.839476
0.839478
0.83948
0.839481
0.839481
0.839483
0.839485
0.839487
0.839488
0.839488
0.83949
0.839492
0.839494
0.839495
0.839495
0.839497
0.839499
0.839501
0.839503
0.839503
0.839504
0.839506
0.839508
0.83951
0.83951
0.839512
0.839514
0.839515
0.839517
0.839517
0.839519
0.839521
0.839523
0.839525
0.839525
0.839527
0.839529
0.839531
0.839533
0.839533
0.839535
0.839536
0.839538
0.83954
0.83954
0.839542
0.839544
0.839546
0.839548
0.839548
0.83955
0.839552
0.839554
0.839556
0.839556
0.839558
0.83956
0.839563
0.839565
0.839565
0.839567
0.839569
0.839571
0.839573
0.839573
0.839575
0.839577
0.839579
0.839581
0.839581
0.839583
0.839586
0.839588
0.83959
0.83959
0.839592
0.839594
0.839596
0.839599
0.839599
0.839601
0.839603
0.839605
0.839607
0.839607
0.83961
0.839612
0.839614
0.839616
0.839616
0.839618
0.839621
0.839623
0.839625
0.839625
0.839628
0.83963
0.839632
0.839634
0.839634
0.839637
0.839639
0.839641
0.839644
0.839644
0.839646
0.839648
0.839651
0.839653
0.839653
0.839656
0.839658
0.83966
0.839663
0.839663
0.839665
0.839668
0.83967
0.839672
0.839672
0.839675
0.839677
0.83968
0.839682
0.839682
0.839685
0.839687
0.83969
0.839692
0.839692
0.839695
0.839697
0.8397
0.839702
0.839702
0.839705
0.839707
0.83971
0.839712
0.839712
0.839715
0.839717
0.83972
0.839722
0.839722
0.839725
0.839728
0.83973
0.839733
0.839733
0.839735
0.839738
0.839741
0.839743
0.839743
0.839746
0.839749
0.839751
0.839754
0.839754
0.839757
0.839759
0.839762
0.839765
0.839765
0.839768
0.83977
0.839773
0.839776
0.839776
0.839778
0.839781
0.839784
0.839787
0.839787
0.839789
0.839792
0.839795
0.839798
0.839798
0.839801
0.839803
0.839806
0.839809
0.839809
0.839812
0.839815
0.839818
0.83982
0.83982
0.839823
0.839826
0.839829
0.839832
0.839832
0.839835
0.839838
0.839841
0.839844
0.839844
0.839846
0.839849
0.839852
0.839855
0.839855
0.839858
0.839861
0.839864
0.839867
0.839867
0.83987
0.839873
0.839876
0.839879
0.839879
0.839882
0.839885
0.839888
0.839891
0.839891
0.839894
0.839897
0.8399
0.839904
0.839904
0.839907
0.83991
0.839913
0.839916
0.839916
0.839919
0.839922
0.839925
0.839928
0.839928
0.839931
0.839935
0.839938
0.839941
0.839941
0.839944
0.839947
0.83995
0.839954
0.839954
0.839957
0.83996
0.839963
0.839967
0.839967
0.83997
0.839973
0.839976
0.839979
0.839979
0.839983
0.839986
0.839989
0.839993
0.839993
0.839996
0.839999
0.840002
0.840006
0.840006
0.840009
0.840012
0.840016
0.840019
0.840019
0.840022
0.840026
0.840029
0.840033
0.840033
0.840036
0.840039
0.840043
0.840046
0.840046
0.84005
0.840053
0.840056
0.84006
0.84006
0.840063
0.840067
0.84007
0.840074
0.840074
0.840077
0.840081
0.840084
0.840088
0.840088
0.840091
0.840095
0.840098
0.840102
0.840102
0.840105
0.840109
0.840112
0.840116
0.840116
0.840119
0.840123
0.840127
0.84013
0.84013
0.840134
0.840137
0.840141
0.840145
0.840145
0.840148
0.840152
0.840156
0.840159
0.840159
0.840163
0.840167
0.84017
0.840174
0.840174
0.840178
0.840181
0.840185
0.840189
0.840189
0.840192
0.840196
0.8402
0.840204
0.840204
0.840207
0.840211
0.840215
0.840219
0.840219
0.840222
0.840226
0.84023
0.840234
0.840234
0.840238
0.840242
0.840245
0.840249
0.840249
0.840253
0.840257
0.840261
0.840265
0.840265
0.840268
0.840272
0.840276
0.84028
0.84028
0.840284
0.840288
0.840292
0.840296
0.840296
0.8403
0.840304
0.840308
0.840312
0.840312
0.840316
0.840319
0.840323
0.840327
0.840327
0.840331
0.840335
0.840339
0.840343
0.840343
0.840348
0.840352
0.840356
0.84036
0.84036
0.840364
0.840368
0.840372
0.840376
0.840376
0.84038
0.840384
0.840388
0.840392
0.840392
0.840396
0.840401
0.840405
0.840409
0.840409
0.840413
0.840417
0.840421
0.840425
0.840425
0.84043
0.840434
0.840438
0.840442
0.840442
0.840446
0.840451
0.840455
0.840459
0.840459
0.840463
0.840468
0.840472
0.840476
0.840476
0.84048
0.840485
0.840489
0.840493
0.840493
0.840498
0.840502
0.840506
0.84051
0.84051
0.840515
0.840519
0.840523
0.840528
0.840528
0.840532
0.840537
0.840541
0.840545
0.840545
0.84055
0.840554
0.840559
0.840563
0.840563
0.840567
0.840572
0.840576
0.840581
0.840581
0.840585
0.84059
0.840594
0.840599
0.840599
0.840603
0.840608
0.840612
0.840617
0.840617
0.840621
0.840626
0.84063
0.840635
0.840635
0.840639
0.840644
0.840648
0.840653
0.840653
0.840657
0.840662
0.840667
0.840671
0.840671
0.840676
0.84068
0.840685
0.84069
0.84069
0.840694
0.840699
0.840704
0.840708
0.840708
0.840713
0.840718
0.840722
0.840727
0.840727
0.840732
0.840736
0.840741
0.840746
0.840746
0.840751
0.840755
0.84076
0.840765
0.840765
0.84077
0.840774
0.840779
0.840784
0.840784
0.840789
0.840793
0.840798
0.840803
0.840803
0.840808
0.840813
0.840818
0.840822
0.840822
0.840827
0.840832
0.840837
0.840842
0.840842
0.840847
0.840852
0.840856
0.840861
0.840861
0.840866
0.840871
0.840876
0.840881
0.840881
0.840886
0.840891
0.840896
0.840901
0.840901
0.840906
0.840911
0.840916
0.840921
0.840921
0.840926
0.840931
0.840936
0.840941
0.840941
0.840946
0.840951
0.840956
0.840961
0.840961
0.840966
0.840971
0.840976
0.840981
0.840981
0.840986
0.840991
0.840997
0.841002
0.841002
0.841007
0.841012
0.841017
0.841022
0.841022
0.841027
0.841033
0.841038
0.841043
0.841043
0.841048
0.841053
0.841058
0.841064
0.841064
0.841069
0.841074
0.841079
0.841085
0.841085
0.84109
0.841095
0.8411
0.841106
0.841106
0.841111
0.841116
0.841121
0.841127
0.841127
0.841132
0.841137
0.841143
0.841148
0.841148
0.841153
0.841159
0.841164
0.841169
0.841169
0.841175
0.84118
0.841185
0.841191
0.841191
0.841196
0.841202
0.841207
0.841212
0.841212
0.841218
0.841223
0.841229
0.841234
0.841234
0.84124
0.841245
0.841251
0.841256
0.841256
0.841262
0.841267
0.841273
0.841278
0.841278
0.841284
0.841289
0.841295
0.8413
0.8413
0.841306
0.841311
0.841317
0.841322
0.841322
0.841328
0.841334
0.841339
0.841345
0.841345
0.84135
0.841356
0.841362
0.841367
0.841367
0.841373
0.841379
0.841384
0.84139
0.84139
0.841396
0.841401
0.841407
0.841413
0.841413
0.841418
0.841424
0.84143
0.841435
0.841435
0.841441
0.841447
0.841453
0.841458
0.841458
0.841464
0.84147
0.841476
0.841481
0.841481
0.841487
0.841493
0.841499
0.841505
0.841505
0.84151
0.841516
0.841522
0.841528
0.841528
0.841534
0.84154
0.841546
0.841551
0.841551
0.841557
0.841563
0.841569
0.841575
0.841575
0.841581
0.841587
0.841593
0.841599
0.841599
0.841605
0.841611
0.841617
0.841623
0.841623
0.841628
0.841634
0.84164
0.841646
0.841646
0.841652
0.841658
0.841664
0.84167
0.84167
0.841677
0.841683
0.841689
0.841695
0.841695
0.841701
0.841707
0.841713
0.841719
0.841719
0.841725
0.841731
0.841737
0.841743
0.841743
0.841749
0.841756
0.841762
0.841768
0.841768
0.841774
0.84178
0.841786
0.841793
0.841793
0.841799
0.841805
0.841811
0.841817
0.841817
0.841824
0.84183
0.841836
0.841842
0.841842
0.841848
0.841855
0.841861
0.841867
0.841867
0.841873
0.84188
0.841886
0.841892
0.841892
0.841899
0.841905
0.841911
0.841918
0.841918
0.841924
0.84193
0.841937
0.841943
0.841943
0.841949
0.841956
0.841962
0.841968
0.841968
0.841975
0.841981
0.841988
0.841994
0.841994
0.842001
0.842007
0.842013
0.84202
0.84202
0.842026
0.842033
0.842039
0.842046
0.842046
0.842052
0.842059
0.842065
0.842072
0.842072
0.842078
0.842085
0.842091
0.842098
0.842098
0.842104
0.842111
0.842117
0.842124
0.842124
0.842131
0.842137
0.842144
0.84215
0.84215
0.842157
0.842164
0.84217
0.842177
0.842177
0.842183
0.84219
0.842197
0.842203
0.842203
0.84221
0.842217
0.842223
0.84223
0.84223
0.842237
0.842243
0.84225
0.842257
0.842257
0.842264
0.84227
0.842277
0.842284
0.842284
0.842291
0.842297
0.842304
0.842311
0.842311
0.842318
0.842324
0.842331
0.842338
0.842338
0.842345
0.842352
0.842359
0.842365
0.842365
0.842372
0.842379
0.842386
0.842393
0.842393
0.8424
0.842407
0.842413
0.84242
0.84242
0.842427
0.842434
0.842441
0.842448
0.842448
0.842455
0.842462
0.842469
0.842476
0.842476
0.842483
0.84249
0.842497
0.842504
0.842504
0.842511
0.842518
0.842525
0.842532
0.842532
0.842539
0.842546
0.842553
0.84256
0.84256
0.842567
0.842574
0.842581
0.842588
0.842588
0.842595
0.842602
0.842609
0.842617
0.842617
0.842624
0.842631
0.842638
0.842645
0.842645
0.842652
0.842659
0.842666
0.842674
0.842674
0.842681
0.842688
0.842695
0.842702
0.842702
0.84271
0.842717
0.842724
0.842731
0.842731
0.842738
0.842746
0.842753
0.84276
0.84276
0.842767
0.842775
0.842782
0.842789
0.842789
0.842797
0.842804
0.842811
0.842819
0.842819
0.842826
0.842833
0.842841
0.842848
0.842848
0.842855
0.842863
0.84287
0.842877
0.842877
0.842885
0.842892
0.8429
0.842907
0.842907
0.842914
0.842922
0.842929
0.842937
0.842937
0.842944
0.842952
0.842959
0.842966
0.842966
0.842974
0.842981
0.842989
0.842996
0.842996
0.843004
0.843011
0.843019
0.843026
0.843026
0.843034
0.843042
0.843049
0.843057
0.843057
0.843064
0.843072
0.843079
0.843087
0.843087
0.843095
0.843102
0.84311
0.843117
0.843117
0.843125
0.843133
0.84314
0.843148
0.843148
0.843156
0.843163
0.843171
0.843179
0.843179
0.843186
0.843194
0.843202
0.843209
0.843209
0.843217
0.843225
0.843232
0.84324
0.84324
0.843248
0.843256
0.843263
0.843271
0.843271
0.843279
0.843287
0.843295
0.843302
0.843302
0.84331
0.843318
0.843326
0.843334
0.843334
0.843341
0.843349
0.843357
0.843365
0.843365
0.843373
0.843381
0.843389
0.843396
0.843396
0.843404
0.843412
0.84342
0.843428
0.843428
0.843436
0.843444
0.843452
0.84346
0.84346
0.843468
0.843476
0.843484
0.843492
0.843492
0.8435
0.843508
0.843516
0.843524
0.843524
0.843532
0.84354
0.843548
0.843556
0.843556
0.843564
0.843572
0.84358
0.843588
0.843588
0.843596
0.843604
0.843612
0.84362
0.84362
0.843628
0.843636
0.843645
0.843653
0.843653
0.843661
0.843669
0.843677
0.843685
0.843685
0.843693
0.843702
0.84371
0.843718
0.843718
0.843726
0.843734
0.843743
0.843751
0.843751
0.843759
0.843767
0.843775
0.843784
0.843784
0.843792
0.8438
0.843808
0.843817
0.843817
0.843825
0.843833
0.843842
0.84385
0.84385
0.843858
0.843866
0.843875
0.843883
0.843883
0.843891
0.8439
0.843908
0.843917
0.843917
0.843925
0.843933
0.843942
0.84395
0.84395
0.843958
0.843967
0.843975
0.843984
0.843984
0.843992
0.844001
0.844009
0.844017
0.844017
0.844026
0.844034
0.844043
0.844051
0.844051
0.84406
0.844068
0.844077
0.844085
0.844085
0.844094
0.844102
0.844111
0.844119
0.844119
0.844128
0.844136
0.844145
0.844154
0.844154
0.844162
0.844171
0.844179
0.844188
0.844188
0.844197
0.844205
0.844214
0.844222
0.844222
0.844231
0.84424
0.844248
0.844257
0.844257
0.844266
0.844274
0.844283
0.844292
0.844292
0.8443
0.844309
0.844318
0.844327
0.844327
0.844335
0.844344
0.844353
0.844361
0.844361
0.84437
0.844379
0.844388
0.844396
0.844396
0.844405
0.844414
0.844423
0.844432
0.844432
0.84444
0.844449
0.844458
0.844467
0.844467
0.844476
0.844485
0.844493
0.844502
0.844502
0.844511
0.84452
0.844529
0.844538
0.844538
0.844547
0.844556
0.844565
0.844574
0.844574
0.844582
0.844591
0.8446
0.844609
0.844609
0.844618
0.844627
0.844636
0.844645
0.844645
0.844654
0.844663
0.844672
0.844681
0.844681
0.84469
0.844699
0.844708
0.844717
0.844717
0.844726
0.844735
0.844744
0.844754
0.844754
0.844763
0.844772
0.844781
0.84479
0.84479
0.844799
0.844808
0.844817
0.844826
0.844826
0.844835
0.844845
0.844854
0.844863
0.844863
0.844872
0.844881
0.84489
0.8449
0.8449
0.844909
0.844918
0.844927
0.844936
0.844936
0.844946
0.844955
0.844964
0.844973
0.844973
0.844983
0.844992
0.845001
0.84501
0.84501
0.84502
0.845029
0.845038
0.845048
0.845048
0.845057
0.845066
0.845076
0.845085
0.845085
0.845094
0.845104
0.845113
0.845122
0.845122
0.845132
0.845141
0.84515
0.84516
0.84516
0.845169
0.845179
0.845188
0.845197
0.845197
0.845207
0.845216
0.845226
0.845235
0.845235
0.845245
0.845254
0.845264
0.845273
0.845273
0.845283
0.845292
0.845302
0.845311
0.845311
0.845321
0.84533
0.84534
0.845349
0.845349
0.845359
0.845368
0.845378
0.845387
0.845387
0.845397
0.845407
0.845416
0.845426
0.845426
0.845435
0.845445
0.845455
0.845464
0.845464
0.845474
0.845484
0.845493
0.845503
0.845503
0.845513
0.845522
0.845532
0.845542
0.845542
0.845551
0.845561
0.845571
0.84558
0.84558
0.84559
0.8456
0.84561
0.845619
0.845619
0.845629
0.845639
0.845649
0.845658
0.845658
0.845668
0.845678
0.845688
0.845698
0.845698
0.845707
0.845717
0.845727
0.845737
0.845737
0.845747
0.845756
0.845766
0.845776
0.845776
0.845786
0.845796
0.845806
0.845816
0.845816
0.845826
0.845836
0.845845
0.845855
0.845855
0.845865
0.845875
0.845885
0.845895
0.845895
0.845905
0.845915
0.845925
0.845935
0.845935
0.845945
0.845955
0.845965
0.845975
0.845975
0.845985
0.845995
0.846005
0.846015
0.846015
0.846025
0.846035
0.846045
0.846055
0.846055
0.846065
0.846075
0.846086
0.846096
0.846096
0.846106
0.846116
0.846126
0.846136
0.846136
0.846146
0.846156
0.846166
0.846177
0.846177
0.846187
0.846197
0.846207
0.846217
0.846217
0.846228
0.846238
0.846248
0.846258
0.846258
0.846268
0.846279
0.846289
0.846299
0.846299
0.846309
0.84632
0.84633
0.84634
0.84634
0.84635
0.846361
0.846371
0.846381
0.846381
0.846392
0.846402
0.846412
0.846422
0.846422
0.846433
0.846443
0.846454
0.846464
0.846464
0.846474
0.846485
0.846495
0.846505
0.846505
0.846516
0.846526
0.846537
0.846547
0.846547
0.846557
0.846568
0.846578
0.846589
0.846589
0.846599
0.84661
0.84662
0.846631
0.846631
0.846641
0.846652
0.846662
0.846673
0.846673
0.846683
0.846694
0.846704
0.846715
0.846715
0.846725
0.846736
0.846746
0.846757
0.846757
0.846767
0.846778
0.846789
0.846799
0.846799
0.84681
0.84682
0.846831
0.846842
0.846842
0.846852
0.846863
0.846873
0.846884
0.846884
0.846895
0.846905
0.846916
0.846927
0.846927
0.846937
0.846948
0.846959
0.846969
0.846969
0.84698
0.846991
0.847002
0.847012
0.847012
0.847023
0.847034
0.847045
0.847055
0.847055
0.847066
0.847077
0.847088
0.847099
0.847099
0.847109
0.84712
0.847131
0.847142
0.847142
0.847153
0.847163
0.847174
0.847185
0.847185
0.847196
0.847207
0.847218
0.847229
0.847229
0.847239
0.84725
0.847261
0.847272
0.847272
0.847283
0.847294
0.847305
0.847316
0.847316
0.847327
0.847338
0.847349
0.84736
0.84736
0.847371
0.847382
0.847393
0.847404
0.847404
0.847415
0.847426
0.847437
0.847448
0.847448
0.847459
0.84747
0.847481
0.847492
0.847492
0.847503
0.847514
0.847525
0.847536
0.847536
0.847547
0.847558
0.847569
0.84758
0.84758
0.847592
0.847603
0.847614
0.847625
0.847625
0.847636
0.847647
0.847658
0.84767
0.84767
0.847681
0.847692
0.847703
0.847714
0.847714
0.847725
0.847737
0.847748
0.847759
0.847759
0.84777
0.847782
0.847793
0.847804
0.847804
0.847815
0.847827
0.847838
0.847849
0.847849
0.84786
0.847872
0.847883
0.847894
0.847894
0.847906
0.847917
0.847928
0.84794
0.84794
0.847951
0.847962
0.847974
0.847985
0.847985
0.847996
0.848008
0.848019
0.848031
0.848031
0.848042
0.848053
0.848065
0.848076
0.848076
0.848088
0.848099
0.848111
0.848122
0.848122
0.848134
0.848145
0.848156
0.848168
0.848168
0.848179
0.848191
0.848202
0.848214
0.848214
0.848225
0.848237
0.848249
0.84826
0.84826
0.848272
0.848283
0.848295
0.848306
0.848306
0.848318
0.848329
0.848341
0.848353
0.848353
0.848364
0.848376
0.848387
0.848399
0.848399
0.848411
0.848422
0.848434
0.848446
0.848446
0.848457
0.848469
0.848481
0.848492
0.848492
0.848504
0.848516
0.848527
0.848539
0.848539
0.848551
0.848563
0.848574
0.848586
0.848586
0.848598
0.84861
0.848621
0.848633
0.848633
0.848645
0.848657
0.848668
0.84868
0.84868
0.848692
0.848704
0.848716
0.848727
0.848727
0.848739
0.848751
0.848763
0.848775
0.848775
0.848787
0.848799
0.84881
0.848822
0.848822
0.848834
0.848846
0.848858
0.84887
0.84887
0.848882
0.848894
0.848906
0.848918
0.848918
0.84893
0.848941
0.848953
0.848965
0.848965
0.848977
0.848989
0.849001
0.849013
0.849013
0.849025
0.849037
0.849049
0.849061
0.849061
0.849073
0.849085
0.849097
0.84911
0.84911
0.849122
0.849134
0.849146
0.849158
0.849158
0.84917
0.849182
0.849194
0.849206
0.849206
0.849218
0.84923
0.849243
0.849255
0.849255
0.849267
0.849279
0.849291
0.849303
0.849303
0.849315
0.849328
0.84934
0.849352
0.849352
0.849364
0.849376
0.849389
0.849401
0.849401
0.849413
0.849425
0.849438
0.84945
0.84945
0.849462
0.849474
0.849487
0.849499
0.849499
0.849511
0.849523
0.849536
0.849548
0.849548
0.84956
0.849573
0.849585
0.849597
0.849597
0.84961
0.849622
0.849634
0.849647
0.849647
0.849659
0.849672
0.849684
0.849696
0.849696
0.849709
0.849721
0.849734
0.849746
0.849746
0.849758
0.849771
0.849783
0.849796
0.849796
0.849808
0.849821
0.849833
0.849846
0.849846
0.849858
0.849871
0.849883
0.849896
0.849896
0.849908
0.849921
0.849933
0.849946
0.849946
0.849958
0.849971
0.849983
0.849996
0.849996
0.850008
0.850021
0.850034
0.850046
0.850046
0.850059
0.850071
0.850084
0.850097
0.850097
0.850109
0.850122
0.850134
0.850147
0.850147
0.85016
0.850172
0.850185
0.850198
0.850198
0.85021
0.850223
0.850236
0.850248
0.850248
0.850261
0.850274
0.850287
0.850299
0.850299
0.850312
0.850325
0.850338
0.85035
0.85035
0.850363
0.850376
0.850389
0.850401
0.850401
0.850414
0.850427
0.85044
0.850453
0.850453
0.850465
0.850478
0.850491
0.850504
0.850504
0.850517
0.85053
0.850543
0.850555
0.850555
0.850568
0.850581
0.850594
0.850607
0.850607
0.85062
0.850633
0.850646
0.850659
0.850659
0.850672
0.850684
0.850697
0.85071
0.85071
0.850723
0.850736
0.850749
0.850762
0.850762
0.850775
0.850788
0.850801
0.850814
0.850814
0.850827
0.85084
0.850853
0.850866
0.850866
0.850879
0.850892
0.850906
0.850919
0.850919
0.850932
0.850945
0.850958
0.850971
0.850971
0.850984
0.850997
0.85101
0.851023
0.851023
0.851037
0.85105
0.851063
0.851076
0.851076
0.851089
0.851102
0.851115
0.851129
0.851129
0.851142
0.851155
0.851168
0.851181
0.851181
0.851195
0.851208
0.851221
0.851234
0.851234
0.851247
0.851261
0.851274
0.851287
0.851287
0.851301
0.851314
0.851327
0.85134
0.85134
0.851354
0.851367
0.85138
0.851394
0.851394
0.851407
0.85142
0.851434
0.851447
0.851447
0.85146
0.851474
0.851487
0.8515
0.8515
0.851514
0.851527
0.851541
0.851554
0.851554
0.851567
0.851581
0.851594
0.851608
0.851608
0.851621
0.851634
0.851648
0.851661
0.851661
0.851675
0.851688
0.851702
0.851715
0.851715
0.851729
0.851742
0.851756
0.851769
0.851769
0.851783
0.851796
0.85181
0.851823
0.851823
0.851837
0.85185
0.851864
0.851878
0.851878
0.851891
0.851905
0.851918
0.851932
0.851932
0.851946
0.851959
0.851973
0.851986
0.851986
0.852
0.852014
0.852027
0.852041
0.852041
0.852055
0.852068
0.852082
0.852096
0.852096
0.852109
0.852123
0.852137
0.85215
0.85215
0.852164
0.852178
0.852192
0.852205
0.852205
0.852219
0.852233
0.852247
0.85226
0.85226
0.852274
0.852288
0.852302
0.852315
0.852315
0.852329
0.852343
0.852357
0.852371
0.852371
0.852384
0.852398
0.852412
0.852426
0.852426
0.85244
0.852454
0.852467
0.852481
0.852481
0.852495
0.852509
0.852523
0.852537
0.852537
0.852551
0.852565
0.852579
0.852593
0.852593
0.852607
0.85262
0.852634
0.852648
0.852648
0.852662
0.852676
0.85269
0.852704
0.852704
0.852718
0.852732
0.852746
0.85276
0.85276
0.852774
0.852788
0.852802
0.852816
0.852816
0.85283
0.852844
0.852858
0.852873
0.852873
0.852887
0.852901
0.852915
0.852929
0.852929
0.852943
0.852957
0.852971
0.852985
0.852985
0.852999
0.853014
0.853028
0.853042
0.853042
0.853056
0.85307
0.853084
0.853098
0.853098
0.853113
0.853127
0.853141
0.853155
0.853155
0.853169
0.853184
0.853198
0.853212
0.853212
0.853226
0.853241
0.853255
0.853269
0.853269
0.853283
0.853298
0.853312
0.853326
0.853326
0.85334
0.853355
0.853369
0.853383
0.853383
0.853398
0.853412
0.853426
0.853441
0.853441
0.853455
0.853469
0.853484
0.853498
0.853498
0.853512
0.853527
0.853541
0.853556
0.853556
0.85357
0.853584
0.853599
0.853613
0.853613
0.853628
0.853642
0.853657
0.853671
0.853671
0.853685
0.8537
0.853714
0.853729
0.853729
0.853743
0.853758
0.853772
0.853787
0.853787
0.853801
0.853816
0.85383
0.853845
0.853845
0.853859
0.853874
0.853888
0.853903
0.853903
0.853918
0.853932
0.853947
0.853961
0.853961
0.853976
0.853991
0.854005
0.85402
0.85402
0.854034
0.854049
0.854064
0.854078
0.854078
0.854093
0.854108
0.854122
0.854137
0.854137
0.854152
0.854166
0.854181
0.854196
0.854196
0.85421
0.854225
0.85424
0.854254
0.854254
0.854269
0.854284
0.854299
0.854313
0.854313
0.854328
0.854343
0.854358
0.854372
0.854372
0.854387
0.854402
0.854417
0.854432
0.854432
0.854446
0.854461
0.854476
0.854491
0.854491
0.854506
0.85452
0.854535
0.85455
0.85455
0.854565
0.85458
0.854595
0.85461
0.85461
0.854625
0.854639
0.854654
0.854669
0.854669
0.854684
0.854699
0.854714
0.854729
0.854729
0.854744
0.854759
0.854774
0.854789
0.854789
0.854804
0.854819
0.854834
0.854849
0.854849
0.854864
0.854879
0.854894
0.854909
0.854909
0.854924
0.854939
0.854954
0.854969
0.854969
0.854984
0.854999
0.855014
0.855029
0.855029
0.855044
0.855059
0.855074
0.855089
0.855089
0.855105
0.85512
0.855135
0.85515
0.85515
0.855165
0.85518
0.855195
0.85521
0.85521
0.855226
0.855241
0.855256
0.855271
0.855271
0.855286
0.855301
0.855317
0.855332
0.855332
0.855347
0.855362
0.855378
0.855393
0.855393
0.855408
0.855423
0.855438
0.855454
0.855454
0.855469
0.855484
0.8555
0.855515
0.855515
0.85553
0.855545
0.855561
0.855576
0.855576
0.855591
0.855607
0.855622
0.855637
0.855637
0.855653
0.855668
0.855683
0.855699
0.855699
0.855714
0.85573
0.855745
0.85576
0.85576
0.855776
0.855791
0.855807
0.855822
0.855822
0.855837
0.855853
0.855868
0.855884
0.855884
0.855899
0.855915
0.85593
0.855946
0.855946
0.855961
0.855977
0.855992
0.856007
0.856007
0.856023
0.856039
0.856054
0.85607
0.85607
0.856085
0.856101
0.856116
0.856132
0.856132
0.856147
0.856163
0.856178
0.856194
0.856194
0.85621
0.856225
0.856241
0.856256
0.856256
0.856272
0.856288
0.856303
0.856319
0.856319
0.856335
0.85635
0.856366
0.856381
0.856381
0.856397
0.856413
0.856428
0.856444
0.856444
0.85646
0.856476
0.856491
0.856507
0.856507
0.856523
0.856538
0.856554
0.85657
0.85657
0.856586
0.856601
0.856617
0.856633
0.856633
0.856649
0.856664
0.85668
0.856696
0.856696
0.856712
0.856728
0.856743
0.856759
0.856759
0.856775
0.856791
0.856807
0.856823
0.856823
0.856838
0.856854
0.85687
0.856886
0.856886
0.856902
0.856918
0.856934
0.85695
0.85695
0.856965
0.856981
0.856997
0.857013
0.857013
0.857029
0.857045
0.857061
0.857077
0.857077
0.857093
0.857109
0.857125
0.857141
0.857141
0.857157
0.857173
0.857189
0.857205
0.857205
0.857221
0.857237
0.857253
0.857269
0.857269
0.857285
0.857301
0.857317
0.857333
0.857333
0.857349
0.857365
0.857381
0.857397
0.857397
0.857413
0.85743
0.857446
0.857462
0.857462
0.857478
0.857494
0.85751
0.857526
0.857526
0.857542
0.857559
0.857575
0.857591
0.857591
0.857607
0.857623
0.857639
0.857656
0.857656
0.857672
0.857688
0.857704
0.85772
0.85772
0.857737
0.857753
0.857769
0.857785
0.857785
0.857802
0.857818
0.857834
0.85785
0.85785
0.857867
0.857883
0.857899
0.857916
0.857916
0.857932
0.857948
0.857964
0.857981
0.857981
0.857997
0.858013
0.85803
0.858046
0.858046
0.858062
0.858079
0.858095
0.858112
0.858112
0.858128
0.858144
0.858161
0.858177
0.858177
0.858193
0.85821
0.858226
0.858243
0.858243
0.858259
0.858276
0.858292
0.858308
0.858308
0.858325
0.858341
0.858358
0.858374
0.858374
0.858391
0.858407
0.858424
0.85844
0.85844
0.858457
0.858473
0.85849
0.858506
0.858506
0.858523
0.858539
0.858556
0.858573
0.858573
0.858589
0.858606
0.858622
0.858639
0.858639
0.858655
0.858672
0.858689
0.858705
0.858705
0.858722
0.858738
0.858755
0.858772
0.858772
0.858788
0.858805
0.858822
0.858838
0.858838
0.858855
0.858872
0.858888
0.858905
0.858905
0.858922
0.858938
0.858955
0.858972
0.858972
0.858989
0.859005
0.859022
0.859039
0.859039
0.859055
0.859072
0.859089
0.859106
0.859106
0.859123
0.859139
0.859156
0.859173
0.859173
0.85919
0.859206
0.859223
0.85924
0.85924
0.859257
0.859274
0.859291
0.859307
0.859307
0.859324
0.859341
0.859358
0.859375
0.859375
0.859392
0.859409
0.859425
0.859442
0.859442
0.859459
0.859476
0.859493
0.85951
0.85951
0.859527
0.859544
0.859561
0.859578
0.859578
0.859595
0.859612
0.859629
0.859646
0.859646
0.859663
0.859679
0.859696
0.859713
0.859713
0.85973
0.859747
0.859765
0.859782
0.859782
0.859799
0.859816
0.859833
0.85985
0.85985
0.859867
0.859884
0.859901
0.859918
0.859918
0.859935
0.859952
0.859969
0.859986
0.859986
0.860003
0.86002
0.860038
0.860055
0.860055
0.860072
0.860089
0.860106
0.860123
0.860123
0.86014
0.860158
0.860175
0.860192
0.860192
0.860209
0.860226
0.860244
0.860261
0.860261
0.860278
0.860295
0.860312
0.86033
0.86033
0.860347
0.860364
0.860381
0.860399
0.860399
0.860416
0.860433
0.86045
0.860468
0.860468
0.860485
0.860502
0.860519
0.860537
0.860537
0.860554
0.860571
0.860589
0.860606
0.860606
0.860623
0.860641
0.860658
0.860675
0.860675
0.860693
0.86071
0.860728
0.860745
0.860745
0.860762
0.86078
0.860797
0.860815
0.860815
0.860832
0.860849
0.860867
0.860884
0.860884
0.860902
0.860919
0.860937
0.860954
0.860954
0.860971
0.860989
0.861006
0.861024
0.861024
0.861041
0.861059
0.861076
0.861094
0.861094
0.861111
0.861129
0.861146
0.861164
0.861164
0.861181
0.861199
0.861217
0.861234
0.861234
0.861252
0.861269
0.861287
0.861304
0.861304
0.861322
0.86134
0.861357
0.861375
0.861375
0.861392
0.86141
0.861428
0.861445
0.861445
0.861463
0.861481
0.861498
0.861516
0.861516
0.861534
0.861551
0.861569
0.861587
0.861587
0.861604
0.861622
0.86164
0.861657
0.861657
0.861675
0.861693
0.861711
0.861728
0.861728
0.861746
0.861764
0.861782
0.861799
0.861799
0.861817
0.861835
0.861853
0.86187
0.86187
0.861888
0.861906
0.861924
0.861942
0.861942
0.861959
0.861977
0.861995
0.862013
0.862013
0.862031
0.862049
0.862067
0.862084
0.862084
0.862102
0.86212
0.862138
0.862156
0.862156
0.862174
0.862192
0.86221
0.862228
0.862228
0.862245
0.862263
0.862281
0.862299
0.862299
0.862317
0.862335
0.862353
0.862371
0.862371
0.862389
0.862407
0.862425
0.862443
0.862443
0.862461
0.862479
0.862497
0.862515
0.862515
0.862533
0.862551
0.862569
0.862587
0.862587
0.862605
0.862623
0.862641
0.862659
0.862659
0.862677
0.862695
0.862714
0.862732
0.862732
0.86275
0.862768
0.862786
0.862804
0.862804
0.862822
0.86284
0.862858
0.862877
0.862877
0.862895
0.862913
0.862931
0.862949
0.862949
0.862967
0.862985
0.863004
0.863022
0.863022
0.86304
0.863058
0.863076
0.863095
0.863095
0.863113
0.863131
0.863149
0.863168
0.863168
0.863186
0.863204
0.863222
0.863241
0.863241
0.863259
0.863277
0.863295
0.863314
0.863314
0.863332
0.86335
0.863369
0.863387
0.863387
0.863405
0.863424
0.863442
0.86346
0.86346
0.863479
0.863497
0.863515
0.863534
0.863534
0.863552
0.86357
0.863589
0.863607
0.863607
0.863626
0.863644
0.863662
0.863681
0.863681
0.863699
0.863718
0.863736
0.863754
0.863754
0.863773
0.863791
0.86381
0.863828
0.863828
0.863847
0.863865
0.863884
0.863902
0.863902
0.863921
0.863939
0.863958
0.863976
0.863976
0.863995
0.864013
0.864032
0.86405
0.86405
0.864069
0.864087
0.864106
0.864125
0.864125
0.864143
0.864162
0.86418
0.864199
0.864199
0.864217
0.864236
0.864255
0.864273
0.864273
0.864292
0.86431
0.864329
0.864348
0.864348
0.864366
0.864385
0.864404
0.864422
0.864422
0.864441
0.86446
0.864478
0.864497
0.864497
0.864516
0.864534
0.864553
0.864572
0.864572
0.864591
0.864609
0.864628
0.864647
0.864647
0.864665
0.864684
0.864703
0.864722
0.864722
0.86474
0.864759
0.864778
0.864797
0.864797
0.864816
0.864834
0.864853
0.864872
0.864872
0.864891
0.86491
0.864928
0.864947
0.864947
0.864966
0.864985
0.865004
0.865023
0.865023
0.865042
0.86506
0.865079
0.865098
0.865098
0.865117
0.865136
0.865155
0.865174
0.865174
0.865193
0.865212
0.86523
0.865249
0.865249
0.865268
0.865287
0.865306
0.865325
0.865325
0.865344
0.865363
0.865382
0.865401
0.865401
0.86542
0.865439
0.865458
0.865477
0.865477
0.865496
0.865515
0.865534
0.865553
0.865553
0.865572
0.865591
0.86561
0.865629
0.865629
0.865648
0.865667
0.865686
0.865706
0.865706
0.865725
0.865744
0.865763
0.865782
0.865782
0.865801
0.86582
0.865839
0.865858