<?xml version="1.0"?>
<VTKFile type="UnstructuredGrid" version="0.1" byte_order="LittleEndian">
<UnstructuredGrid>
<Piece NumberOfPoints="5000" NumberOfCells="4000">
<PointData Scalars="Reaction 0">
<DataArray type="Float32" Name="Reaction 0" format="ascii">
0.407922
0.407922
0.407922
0.407922
0.407923
0.407923
0.407923
0.407923
0.407923
0.407923
0.407923
0.407923
0.407924
0.407924
0.407924
0.407924
0.407925
0.407925
0.407925
0.407926
0.407926
0.407926
0.407927
0.407927
0.407928
0.407928
0.407928
0.407929
0.40793
0.40793
0.40793
0.407931
0.407932
0.407932
0.407933
0.407933
0.407934
0.407935
0.407935
0.407936
0.407936
0.407937
0.407938
0.407939
0.40794
0.40794
0.407941
0.407942
0.407943
0.407944
0.407944
0.407945
0.407946
0.407948
0.407949
0.407949
0.40795
0.407951
0.407953
0.407954
0.407954
0.407955
0.407956
0.407958
0.407959
0.407959
0.407961
0.407962
0.407964
0.407965
0.407965
0.407967
0.407968
0.40797
0.407972
0.407972
0.407973
0.407975
0.407977
0.407978
0.407978
0.40798
0.407982
0.407984
0.407986
0.407986
0.407987
0.407989
0.407991
0.407993
0.407993
0.407995
0.407997
0.407999
0.408001
0.408001
0.408003
0.408006
0.408008
0.40801
0.40801
0.408012
0.408014
0.408017
0.408019
0.408019
0.408021
0.408023
0.408026
0.408028
0.408028
0.408031
0.408033
0.408036
0.408038
0.408038
0.408041
0.408043
0.408046
0.408048
0.408048
0.408051
0.408054
0.408056
0.408059
0.408059
0.408062
0.408065
0.408067
0.40807
0.40807
0.408073
0.408076
0.408079
0.408082
0.408082
0.408085
0.408088
0.408091
0.408094
0.408094
0.408097
0.4081
0.408103
0.408106
0.408106
0.40811
0.408113
0.408116
0.408119
0.408119
0.408123
0.408126
0.408129
0.408133
0.408133
0.408136
0.408139
0.408143
0.408146
0.408146
0.40815
0.408153
0.408157
0.408161
0.408161
0.408164
0.408168
0.408172
0.408175
0.408175
0.408179
0.408183
0.408187
0.40819
0.40819
0.408194
0.408198
0.408202
0.408206
0.408206
0.40821
0.408214
0.408218
0.408222
0.408222
0.408226
0.40823
0.408234
0.408238
0.408238
0.408243
0.408247
0.408251
0.408255
0.408255
0.408259
0.408264
0.408268
0.408272
0.408272
0.408277
0.408281
0.408286
0.40829
0.40829
0.408295
0.408299
0.408304
0.408308
0.408308
0.408313
0.408318
0.408322
0.408327
0.408327
0.408332
0.408336
0.408341
0.408346
0.408346
0.408351
0.408356
0.408361
0.408365
0.408365
0.40837
0.408375
0.40838
0.408385
0.408385
0.40839
0.408396
0.408401
0.408406
0.408406
0.408411
0.408416
0.408421
0.408427
0.408427
0.408432
0.408437
0.408442
0.408448
0.408448
0.408453
0.408459
0.408464
0.408469
0.408469
0.408475
0.40848
0.408486
0.408492
0.408492
0.408497
0.408503
0.408508
0.408514
0.408514
0.40852
0.408526
0.408531
0.408537
0.408537
0.408543
0.408549
0.408555
0.40856
0.40856
0.408566
0.408572
0.408578
0.408584
0.408584
0.40859
0.408596
0.408602
0.408609
0.408609
0.408615
0.408621
0.408627
0.408633
0.408633
0.40864
0.408646
0.408652
0.408658
0.408658
0.408665
0.408671
0.408678
0.408684
0.408684
0.408691
0.408697
0.408704
0.40871
0.40871
0.408717
0.408723
0.40873
0.408737
0.408737
0.408743
0.40875
0.408757
0.408764
0.408764
0.40877
0.408777
0.408784
0.408791
0.408791
0.408798
0.408805
0.408812
0.408819
0.408819
0.408826
0.408833
0.40884
0.408847
0.408847
0.408854
0.408861
0.408868
0.408876
0.408876
0.408883
0.40889
0.408897
0.408905
0.408905
0.408912
0.408919
0.408927
0.408934
0.408934
0.408942
0.408949
0.408957
0.408964
0.408964
0.408972
0.408979
0.408987
0.408995
0.408995
0.409002
0.40901
0.409018
0.409025
0.409025
0.409033
0.409041
0.409049
0.409057
0.409057
0.409065
0.409072
0.40908
0.409088
0.409088
0.409096
0.409104
0.409112
0.409121
0.409121
0.409129
0.409137
0.409145
0.409153
0.409153
0.409161
0.40917
0.409178
0.409186
0.409186
0.409194
0.409203
0.409211
0.40922
0.40922
0.409228
0.409237
0.409245
0.409254
0.409254
0.409262
0.409271
0.409279
0.409288
0.409288
0.409297
0.409305
0.409314
0.409323
0.409323
0.409331
0.40934
0.409349
0.409358
0.409358
0.409367
0.409376
0.409385
0.409394
0.409394
0.409402
0.409411
0.409421
0.40943
0.40943
0.409439
0.409448
0.409457
0.409466
0.409466
0.409475
0.409485
0.409494
0.409503
0.409503
0.409512
0.409522
0.409531
0.40954
0.40954
0.40955
0.409559
0.409569
0.409578
0.409578
0.409588
0.409597
0.409607
0.409617
0.409617
0.409626
0.409636
0.409646
0.409655
0.409655
0.409665
0.409675
0.409685
0.409694
0.409694
0.409704
0.409714
0.409724
0.409734
0.409734
0.409744
0.409754
0.409764
0.409774
0.409774
0.409784
0.409794
0.409804
0.409814
0.409814
0.409825
0.409835
0.409845
0.409855
0.409855
0.409866
0.409876
0.409886
0.409897
0.409897
0.409907
0.409918
0.409928
0.409938
0.409938
0.409949
0.409959
0.40997
0.409981
0.409981
0.409991
0.410002
0.410013
0.410023
0.410023
0.410034
0.410045
0.410056
0.410066
0.410066
0.410077
0.410088
0.410099
0.41011
0.41011
0.410121
0.410132
0.410143
0.410154
0.410154
0.410165
0.410176
0.410187
0.410198
0.410198
0.410209
0.410221
0.410232
0.410243
0.410243
0.410254
0.410266
0.410277
0.410288
0.410288
0.4103
0.410311
0.410322
0.410334
0.410334
0.410345
0.410357
0.410368
0.41038
0.41038
0.410392
0.410403
0.410415
0.410427
0.410427
0.410438
0.41045
0.410462
0.410474
0.410474
0.410485
0.410497
0.410509
0.410521
0.410521
0.410533
0.410545
0.410557
0.410569
0.410569
0.410581
0.410593
0.410605
0.410617
0.410617
0.410629
0.410642
0.410654
0.410666
0.410666
0.410678
0.41069
0.410703
0.410715
0.410715
0.410727
0.41074
0.410752
0.410765
0.410765
0.410777
0.41079
0.410802
0.410815
0.410815
0.410827
0.41084
0.410853
0.410865
0.410865
0.410878
0.410891
0.410903
0.410916
0.410916
0.410929
0.410942
0.410955
0.410968
0.410968
0.41098
0.410993
0.411006
0.411019
0.411019
0.411032
0.411045
0.411058
0.411072
0.411072
0.411085
0.411098
0.411111
0.411124
0.411124
0.411137
0.411151
0.411164
0.411177
0.411177
0.411191
0.411204
0.411217
0.411231
0.411231
0.411244
0.411258
0.411271
0.411285
0.411285
0.411298
0.411312
0.411326
0.411339
0.411339
0.411353
0.411367
0.41138
0.411394
0.411394
0.411408
0.411422
0.411435
0.411449
0.411449
0.411463
0.411477
0.411491
0.411505
0.411505
0.411519
0.411533
0.411547
0.411561
0.411561
0.411575
0.411589
0.411604
0.411618
0.411618
0.411632
0.411646
0.41166
0.411675
0.411675
0.411689
0.411703
0.411718
0.411732
0.411732
0.411747
0.411761
0.411776
0.41179
0.41179
0.411805
0.411819
0.411834
0.411848
0.411848
0.411863
0.411878
0.411892
0.411907
0.411907
0.411922
0.411937
0.411951
0.411966
0.411966
0.411981
0.411996
0.412011
0.412026
0.412026
0.412041
0.412056
0.412071
0.412086
0.412086
0.412101
0.412116
0.412131
0.412146
0.412146
0.412162
0.412177
0.412192
0.412207
0.412207
0.412223
0.412238
0.412253
0.412269
0.412269
0.412284
0.4123
0.412315
0.412331
0.412331
0.412346
0.412362
0.412377
0.412393
0.412393
0.412408
0.412424
0.41244
0.412455
0.412455
0.412471
0.412487
0.412503
0.412518
0.412518
0.412534
0.41255
0.412566
0.412582
0.412582
0.412598
0.412614
0.41263
0.412646
0.412646
0.412662
0.412678
0.412694
0.41271
0.41271
0.412727
0.412743
0.412759
0.412775
0.412775
0.412791
0.412808
0.412824
0.41284
0.41284
0.412857
0.412873
0.41289
0.412906
0.412906
0.412923
0.412939
0.412956
0.412972
0.412972
0.412989
0.413006
0.413022
0.413039
0.413039
0.413056
0.413072
0.413089
0.413106
0.413106
0.413123
0.41314
0.413156
0.413173
0.413173
0.41319
0.413207
0.413224
0.413241
0.413241
0.413258
0.413275
0.413292
0.41331
0.41331
0.413327
0.413344
0.413361
0.413378
0.413378
0.413395
0.413413
0.41343
0.413447
0.413447
0.413465
0.413482
0.4135
0.413517
0.413517
0.413534
0.413552
0.41357
0.413587
0.413587
0.413605
0.413622
0.41364
0.413658
0.413658
0.413675
0.413693
0.413711
0.413728
0.413728
0.413746
0.413764
0.413782
0.4138
0.4138
0.413818
0.413836
0.413854
0.413872
0.413872
0.41389
0.413908
0.413926
0.413944
0.413944
0.413962
0.41398
0.413998
0.414016
0.414016
0.414035
0.414053
0.414071
0.414089
0.414089
0.414108
0.414126
0.414145
0.414163
0.414163
0.414181
0.4142
0.414218
0.414237
0.414237
0.414255
0.414274
0.414293
0.414311
0.414311
0.41433
0.414349
0.414367
0.414386
0.414386
0.414405
0.414424
0.414442
0.414461
0.414461
0.41448
0.414499
0.414518
0.414537
0.414537
0.414556
0.414575
0.414594
0.414613
0.414613
0.414632
0.414651
0.41467
0.41469
0.41469
0.414709
0.414728
0.414747
0.414767
0.414767
0.414786
0.414805
0.414825
0.414844
0.414844
0.414863
0.414883
0.414902
0.414922
0.414922
0.414941
0.414961
0.414981
0.415
0.415
0.41502
0.415039
0.415059
0.415079
0.415079
0.415099
0.415118
0.415138
0.415158
0.415158
0.415178
0.415198
0.415218
0.415238
0.415238
0.415257
0.415277
0.415297
0.415318
0.415318
0.415338
0.415358
0.415378
0.415398
0.415398
0.415418
0.415438
0.415459
0.415479
0.415479
0.415499
0.415519
0.41554
0.41556
0.41556
0.415581
0.415601
0.415621
0.415642
0.415642
0.415662
0.415683
0.415703
0.415724
0.415724
0.415745
0.415765
0.415786
0.415807
0.415807
0.415827
0.415848
0.415869
0.41589
0.41589
0.41591
0.415931
0.415952
0.415973
0.415973
0.415994
0.416015
0.416036
0.416057
0.416057
0.416078
0.416099
0.41612
0.416141
0.416141
0.416162
0.416184
0.416205
0.416226
0.416226
0.416247
0.416269
0.41629
0.416311
0.416311
0.416333
0.416354
0.416375
0.416397
0.416397
0.416418
0.41644
0.416461
0.416483
0.416483
0.416504
0.416526
0.416548
0.416569
0.416569
0.416591
0.416613
0.416634
0.416656
0.416656
0.416678
0.4167
0.416722
0.416744
0.416744
0.416765
0.416787
0.416809
0.416831
0.416831
0.416853
0.416875
0.416897
0.41692
0.41692
0.416942
0.416964
0.416986
0.417008
0.417008
0.41703
0.417053
0.417075
0.417097
0.417097
0.41712
0.417142
0.417164
0.417187
0.417187
0.417209
0.417232
0.417254
0.417277
0.417277
0.417299
0.417322
0.417344
0.417367
0.417367
0.41739
0.417412
0.417435
0.417458
0.417458
0.417481
0.417503
0.417526
0.417549
0.417549
0.417572
0.417595
0.417618
0.417641
0.417641
0.417664
0.417687
0.41771
0.417733
0.417733
0.417756
0.417779
0.417802
0.417825
0.417825
0.417848
0.417872
0.417895
0.417918
0.417918
0.417942
0.417965
0.417988
0.418012
0.418012
0.418035
0.418058
0.418082
0.418105
0.418105
0.418129
0.418152
0.418176
0.4182
0.4182
0.418223
0.418247
0.418271
0.418294
0.418294
0.418318
0.418342
0.418366
0.418389
0.418389
0.418413
0.418437
0.418461
0.418485
0.418485
0.418509
0.418533
0.418557
0.418581
0.418581
0.418605
0.418629
0.418653
0.418677
0.418677
0.418701
0.418726
0.41875
0.418774
0.418774
0.418798
0.418823
0.418847
0.418871
0.418871
0.418896
0.41892
0.418944
0.418969
0.418969
0.418993
0.419018
0.419042
0.419067
0.419067
0.419092
0.419116
0.419141
0.419166
0.419166
0.41919
0.419215
0.41924
0.419265
0.419265
0.419289
0.419314
0.419339
0.419364
0.419364
0.419389
0.419414
0.419439
0.419464
0.419464
0.419489
0.419514
0.419539
0.419564
0.419564
0.419589
0.419614
0.419639
0.419665
0.419665
0.41969
0.419715
0.41974
0.419766
0.419766
0.419791
0.419816
0.419842
0.419867
0.419867
0.419893
0.419918
0.419944
0.419969
0.419969
0.419995
0.42002
0.420046
0.420072
0.420072
0.420097
0.420123
0.420149
0.420174
0.420174
0.4202
0.420226
0.420252
0.420278
0.420278
0.420304
0.420329
0.420355
0.420381
0.420381
0.420407
0.420433
0.420459
0.420485
0.420485
0.420512
0.420538
0.420564
0.42059
0.42059
0.420616
0.420642
0.420669
0.420695
0.420695
0.420721
0.420748
0.420774
0.4208
0.4208
0.420827
0.420853
0.42088
0.420906
0.420906
0.420933
0.420959
0.420986
0.421012
0.421012
0.421039
0.421066
0.421092
0.421119
0.421119
0.421146
0.421173
0.421199
0.421226
0.421226
0.421253
0.42128
0.421307
0.421334
0.421334
0.421361
0.421388
0.421415
0.421442
0.421442
0.421469
0.421496
0.421523
0.42155
0.42155
0.421577
0.421604
0.421632
0.421659
0.421659
0.421686
0.421713
0.421741
0.421768
0.421768
0.421795
0.421823
0.42185
0.421878
0.421878
0.421905
0.421933
0.42196
0.421988
0.421988
0.422015
0.422043
0.422071
0.422098
0.422098
0.422126
0.422154
0.422182
0.422209
0.422209
0.422237
0.422265
0.422293
0.422321
0.422321
0.422349
0.422377
0.422405
0.422433
0.422433
0.422461
0.422489
0.422517
0.422545
0.422545
0.422573
0.422601
0.422629
0.422657
0.422657
0.422686
0.422714
0.422742
0.42277
0.42277
0.422799
0.422827
0.422856
0.422884
0.422884
0.422912
0.422941
0.422969
0.422998
0.422998
0.423026
0.423055
0.423084
0.423112
0.423112
0.423141
0.42317
0.423198
0.423227
0.423227
0.423256
0.423285
0.423313
0.423342
0.423342
0.423371
0.4234
0.423429
0.423458
0.423458
0.423487
0.423516
0.423545
0.423574
0.423574
0.423603
0.423632
0.423661
0.423691
0.423691
0.42372
0.423749
0.423778
0.423807
0.423807
0.423837
0.423866
0.423895
0.423925
0.423925
0.423954
0.423984
0.424013
0.424043
0.424043
0.424072
0.424102
0.424131
0.424161
0.424161
0.42419
0.42422
0.42425
0.424279
0.424279
0.424309
0.424339
0.424369
0.424398
0.424398
0.424428
0.424458
0.424488
0.424518
0.424518
0.424548
0.424578
0.424608
0.424638
0.424638
0.424668
0.424698
0.424728
0.424758
0.424758
0.424788
0.424818
0.424849
0.424879
0.424879
0.424909
0.424939
0.42497
0.425
0.425
0.42503
0.425061
0.425091
0.425122
0.425122
0.425152
0.425183
0.425213
0.425244
0.425244
0.425274
0.425305
0.425335
0.425366
0.425366
0.425397
0.425428
0.425458
0.425489
0.425489
0.42552
0.425551
0.425581
0.425612
0.425612
0.425643
0.425674
0.425705
0.425736
0.425736
0.425767
0.425798
0.425829
0.42586
0.42586
0.425891
0.425922
0.425954
0.425985
0.425985
0.426016
0.426047
0.426078
0.42611
0.42611
0.426141
0.426172
0.426204
0.426235
0.426235
0.426267
0.426298
0.42633
0.426361
0.426361
0.426393
0.426424
0.426456
0.426487
0.426487
0.426519
0.426551
0.426582
0.426614
0.426614
0.426646
0.426678
0.426709
0.426741
0.426741
0.426773
0.426805
0.426837
0.426869
0.426869
0.426901
0.426933
0.426965
0.426997
0.426997
0.427029
0.427061
0.427093
0.427125
0.427125
0.427157
0.427189
0.427222
0.427254
0.427254
0.427286
0.427318
0.427351
0.427383
0.427383
0.427415
0.427448
0.42748
0.427513
0.427513
0.427545
0.427578
0.42761
0.427643
0.427643
0.427675
0.427708
0.427741
0.427773
0.427773
0.427806
0.427839
0.427871
0.427904
0.427904
0.427937
0.42797
0.428003
0.428036
0.428036
0.428069
0.428101
0.428134
0.428167
0.428167
0.4282
0.428233
0.428266
0.4283
0.4283
0.428333
0.428366
0.428399
0.428432
0.428432
0.428465
0.428499
0.428532
0.428565
0.428565
0.428599
0.428632
0.428665
0.428699
0.428699
0.428732
0.428766
0.428799
0.428833
0.428833
0.428866
0.4289
0.428933
0.428967
0.428967
0.429001
0.429034
0.429068
0.429102
0.429102
0.429135
0.429169
0.429203
0.429237
0.429237
0.429271
0.429305
0.429338
0.429372
0.429372
0.429406
0.42944
0.429474
0.429508
0.429508
0.429542
0.429577
0.429611
0.429645
0.429645
0.429679
0.429713
0.429747
0.429782
0.429782
0.429816
0.42985
0.429885
0.429919
0.429919
0.429953
0.429988
0.430022
0.430057
0.430057
0.430091
0.430126
0.43016
0.430195
0.430195
0.430229
0.430264
0.430299
0.430333
0.430333
0.430368
0.430403
0.430437
0.430472
0.430472
0.430507
0.430542
0.430577
0.430612
0.430612
0.430646
0.430681
0.430716
0.430751
0.430751
0.430786
0.430821
0.430856
0.430892
0.430892
0.430927
0.430962
0.430997
0.431032
0.431032
0.431067
0.431103
0.431138
0.431173
0.431173
0.431209
0.431244
0.431279
0.431315
0.431315
0.43135
0.431386
0.431421
0.431457
0.431457
0.431492
0.431528
0.431563
0.431599
0.431599
0.431635
0.43167
0.431706
0.431742
0.431742
0.431777
0.431813
0.431849
0.431885
0.431885
0.431921
0.431956
0.431992
0.432028
0.432028
0.432064
0.4321
0.432136
0.432172
0.432172
0.432208
0.432244
0.432281
0.432317
0.432317
0.432353
0.432389
0.432425
0.432462
0.432462
0.432498
0.432534
0.43257
0.432607
0.432607
0.432643
0.43268
0.432716
0.432752
0.432752
0.432789
0.432825
0.432862
0.432899
0.432899
0.432935
0.432972
0.433008
0.433045
0.433045
0.433082
0.433118
0.433155
0.433192
0.433192
0.433229
0.433266
0.433302
0.433339
0.433339
0.433376
0.433413
0.43345
0.433487
0.433487
0.433524
0.433561
0.433598
0.433635
0.433635
0.433672
0.43371
0.433747
0.433784
0.433784
0.433821
0.433858
0.433896
0.433933
0.433933
0.43397
0.434008
0.434045
0.434082
0.434082
0.43412
0.434157
0.434195
0.434232
0.434232
0.43427
0.434307
0.434345
0.434382
0.434382
0.43442
0.434458
0.434495
0.434533
0.434533
0.434571
0.434609
0.434646
0.434684
0.434684
0.434722
0.43476
0.434798
0.434836
0.434836
0.434874
0.434912
0.43495
0.434988
0.434988
0.435026
0.435064
0.435102
0.43514
0.43514
0.435178
0.435216
0.435255
0.435293
0.435293
0.435331
0.435369
0.435408
0.435446
0.435446
0.435484
0.435523
0.435561
0.4356
0.4356
0.435638
0.435677
0.435715
0.435754
0.435754
0.435792
0.435831
0.43587
0.435908
0.435908
0.435947
0.435986
0.436024
0.436063
0.436063
0.436102
0.436141
0.43618
0.436218
0.436218
0.436257
0.436296
0.436335
0.436374
0.436374
0.436413
0.436452
0.436491
0.43653
0.43653
0.436569
0.436608
0.436648
0.436687
0.436687
0.436726
0.436765
0.436804
0.436844
0.436844
0.436883
0.436922
0.436962
0.437001
0.437001
0.43704
0.43708
0.437119
0.437159
0.437159
0.437198
0.437238
0.437277
0.437317
0.437317
0.437357
0.437396
0.437436
0.437476
0.437476
0.437515
0.437555
0.437595
0.437635
0.437635
0.437674
0.437714
0.437754
0.437794
0.437794
0.437834
0.437874
0.437914
0.437954
0.437954
0.437994
0.438034
0.438074
0.438114
0.438114
0.438154
0.438195
0.438235
0.438275
0.438275
0.438315
0.438355
0.438396
0.438436
0.438436
0.438476
0.438517
0.438557
0.438598
0.438598
0.438638
0.438678
0.438719
0.43876
0.43876
0.4388
0.438841
0.438881
0.438922
0.438922
0.438963
0.439003
0.439044
0.439085
0.439085
0.439125
0.439166
0.439207
0.439248
0.439248
0.439289
0.43933
0.43937
0.439411
0.439411
0.439452
0.439493
0.439534
0.439575
0.439575
0.439616
0.439658
0.439699
0.43974
0.43974
0.439781
0.439822
0.439863
0.439905
0.439905
0.439946
0.439987
0.440029
0.44007
0.44007
0.440111
0.440153
0.440194
0.440236
0.440236
0.440277
0.440319
0.44036
0.440402
0.440402
0.440443
0.440485
0.440526
0.440568
0.440568
0.44061
0.440652
0.440693
0.440735
0.440735
0.440777
0.440819
0.440861
0.440902
0.440902
0.440944
0.440986
0.441028
0.44107
0.44107
0.441112
0.441154
0.441196
0.441238
0.441238
0.44128
0.441322
0.441365
0.441407
0.441407
0.441449
0.441491
0.441534
0.441576
0.441576
0.441618
0.44166
0.441703
0.441745
0.441745
0.441788
0.44183
0.441872
0.441915
0.441915
0.441957
0.442
0.442043
0.442085
0.442085
0.442128
0.44217
0.442213
0.442256
0.442256
0.442299
0.442341
0.442384
0.442427
0.442427
0.44247
0.442513
0.442555
0.442598
0.442598
0.442641
0.442684
0.442727
0.44277
0.44277
0.442813
0.442856
0.442899
0.442942
0.442942
0.442986
0.443029
0.443072
0.443115
0.443115
0.443158
0.443202
0.443245
0.443288
0.443288
0.443332
0.443375
0.443418
0.443462
0.443462
0.443505
0.443549
0.443592
0.443636
0.443636
0.443679
0.443723
0.443766
0.44381
0.44381
0.443854
0.443897
0.443941
0.443985
0.443985
0.444028
0.444072
0.444116
0.44416
0.44416
0.444204
0.444248
0.444291
0.444335
0.444335
0.444379
0.444423
0.444467
0.444511
0.444511
0.444555
0.444599
0.444644
0.444688
0.444688
0.444732
0.444776
0.44482
0.444864
0.444864
0.444909
0.444953
0.444997
0.445042
0.445042
0.445086
0.44513
0.445175
0.445219
0.445219
0.445264
0.445308
0.445353
0.445397
0.445397
0.445442
0.445486
0.445531
0.445576
0.445576
0.44562
0.445665
0.44571
0.445755
0.445755
0.445799
0.445844
0.445889
0.445934
0.445934
0.445979
0.446024
0.446069
0.446113
0.446113
0.446158
0.446203
0.446249
0.446294
0.446294
0.446339
0.446384
0.446429
0.446474
0.446474
0.446519
0.446564
0.44661
0.446655
0.446655
0.4467
0.446746
0.446791
0.446836
0.446836
0.446882
0.446927
0.446972
0.447018
0.447018
0.447063
0.447109
0.447154
0.4472
0.4472
0.447246
0.447291
0.447337
0.447383
0.447383
0.447428
0.447474
0.44752
0.447565
0.447565
0.447611
0.447657
0.447703
0.447749
0.447749
0.447795
0.447841
0.447887
0.447933
0.447933
0.447979
0.448025
0.448071
0.448117
0.448117
0.448163
0.448209
0.448255
0.448301
0.448301
0.448347
0.448394
0.44844
0.448486
0.448486
0.448533
0.448579
0.448625
0.448672
0.448672
0.448718
0.448764
0.448811
0.448857
0.448857
0.448904
0.44895
0.448997
0.449044
0.449044
0.44909
0.449137
0.449183
0.44923
0.44923
0.449277
0.449324
0.44937
0.449417
0.449417
0.449464
0.449511
0.449558
0.449605
0.449605
0.449651
0.449698
0.449745
0.449792
0.449792
0.449839
0.449886
0.449934
0.449981
0.449981
0.450028
0.450075
0.450122
0.450169
0.450169
0.450216
0.450264
0.450311
0.450358
0.450358
0.450406
0.450453
0.4505
0.450548
0.450548
0.450595
0.450643
0.45069
0.450738
0.450738
0.450785
0.450833
0.45088
0.450928
0.450928
0.450975
0.451023
0.451071
0.451118
0.451118
0.451166
0.451214
0.451262
0.45131
0.45131
0.451357
0.451405
0.451453
0.451501
0.451501
0.451549
0.451597
0.451645
0.451693
0.451693
0.451741
0.451789
0.451837
0.451885
0.451885
0.451933
0.451981
0.45203
0.452078
0.452078
0.452126
0.452174
0.452223
0.452271
0.452271
0.452319
0.452368
0.452416
0.452464
0.452464
0.452513
0.452561
0.45261
0.452658
0.452658
0.452707
0.452755
0.452804
0.452853
0.452853
0.452901
0.45295
0.452999
0.453047
0.453047
0.453096
0.453145
0.453194
0.453242
0.453242
0.453291
0.45334
0.453389
0.453438
0.453438
0.453487
0.453536
0.453585
0.453634
0.453634
0.453683
0.453732
0.453781
0.45383
0.45383
0.453879
0.453929
0.453978
0.454027
0.454027
0.454076
0.454125
0.454175
0.454224
0.454224
0.454273
0.454323
0.454372
0.454422
0.454422
0.454471
0.454521
0.45457
0.45462
0.45462
0.454669
0.454719
0.454768
0.454818
0.454818
0.454868
0.454917
0.454967
0.455017
0.455017
0.455066
0.455116
0.455166
0.455216
0.455216
0.455266
0.455315
0.455365
0.455415
0.455415
0.455465
0.455515
0.455565
0.455615
0.455615
0.455665
0.455715
0.455765
0.455816
0.455816
0.455866
0.455916
0.455966
0.456016
0.456016
0.456067
0.456117
0.456167
0.456217
0.456217
0.456268
0.456318
0.456369
0.456419
0.456419
0.45647
0.45652
0.45657
0.456621
0.456621
0.456672
0.456722
0.456773
0.456823
0.456823
0.456874
0.456925
0.456975
0.457026
0.457026
0.457077
0.457128
0.457178
0.457229
0.457229
0.45728
0.457331
0.457382
0.457433
0.457433
0.457484
0.457535
0.457586
0.457637
0.457637
0.457688
0.457739
0.45779
0.457841
0.457841
0.457892
0.457944
0.457995
0.458046
0.458046
0.458097
0.458148
0.4582
0.458251
0.458251
0.458302
0.458354
0.458405
0.458457
0.458457
0.458508
0.45856
0.458611
0.458663
0.458663
0.458714
0.458766
0.458817
0.458869
0.458869
0.458921
0.458972
0.459024
0.459076
0.459076
0.459127
0.459179
0.459231
0.459283
0.459283
0.459335
0.459387
0.459439
0.45949
0.45949
0.459542
0.459594
0.459646
0.459698
0.459698
0.45975
0.459803
0.459855
0.459907
0.459907
0.459959
0.460011
0.460063
0.460116
0.460116
0.460168
0.46022
0.460272
0.460325
0.460325
0.460377
0.460429
0.460482
0.460534
0.460534
0.460587
0.460639
0.460692
0.460744
0.460744
0.460797
0.460849
0.460902
0.460955
0.460955
0.461007
0.46106
0.461113
0.461165
0.461165
0.461218
0.461271
0.461324
0.461376
0.461376
0.461429
0.461482
0.461535
0.461588
0.461588
0.461641
0.461694
0.461747
0.4618
0.4618
0.461853
0.461906
0.461959
0.462012
0.462012
0.462065
0.462119
0.462172
0.462225
0.462225
0.462278
0.462332
0.462385
0.462438
0.462438
0.462492
0.462545
0.462598
0.462652
0.462652
0.462705
0.462759
0.462812
0.462866
0.462866
0.462919
0.462973
0.463026
0.46308
0.46308
0.463134
0.463187
0.463241
0.463295
0.463295
0.463348
0.463402
0.463456
0.46351
0.46351
0.463564
0.463618
0.463671
0.463725
0.463725
0.463779
0.463833
0.463887
0.463941
0.463941
0.463995
0.464049
0.464103
0.464158
0.464158
0.464212
0.464266
0.46432
0.464374
0.464374
0.464428
0.464483
0.464537
0.464591
0.464591
0.464646
0.4647
0.464754
0.464809
0.464809
0.464863
0.464918
0.464972
0.465027
0.465027
0.465081
0.465136
0.46519
0.465245
0.465245
0.4653
0.465354
0.465409
0.465464
0.465464
0.465518
0.465573
0.465628
0.465683
0.465683
0.465738
0.465792
0.465847
0.465902
0.465902
0.465957
0.466012
0.466067
0.466122
0.466122
0.466177
0.466232
0.466287
0.466342
0.466342
0.466397
0.466453
0.466508
0.466563
0.466563
0.466618
0.466673
0.466729
0.466784
0.466784
0.466839
0.466895
0.46695
0.467005
0.467005
0.467061
0.467116
0.467172
0.467227
0.467227
0.467283
0.467338
0.467394
0.46745
0.46745
0.467505
0.467561
0.467616
0.467672
0.467672
0.467728
0.467784
0.467839
0.467895
0.467895
0.467951
0.468007
0.468063
0.468119
0.468119
0.468174
0.46823
0.468286
0.468342
0.468342
0.468398
0.468454
0.46851
0.468567
0.468567
0.468623
0.468679
0.468735
0.468791
0.468791
0.468847
0.468904
0.46896
0.469016
0.469016
0.469072
0.469129
0.469185
0.469241
0.469241
0.469298
0.469354
0.469411
0.469467
0.469467
0.469524
0.46958
0.469637
0.469693
0.469693
0.46975
0.469807
0.469863
0.46992
0.46992
0.469977
0.470033
0.47009
0.470147
0.470147
0.470204
0.47026
0.470317
0.470374
0.470374
0.470431
0.470488
0.470545
0.470602
0.470602
0.470659
0.470716
0.470773
0.47083
0.47083
0.470887
0.470944
0.471001
0.471058
0.471058
0.471116
0.471173
0.47123
0.471287
0.471287
0.471345
0.471402
0.471459
0.471517
0.471517
0.471574
0.471631
0.471689
0.471746
0.471746
0.471804
0.471861
0.471919
0.471976
0.471976
0.472034
0.472092
0.472149
0.472207
0.472207
0.472264
0.472322
0.47238
0.472438
0.472438
0.472495
0.472553
0.472611
0.472669
0.472669
0.472727
0.472785
0.472843
0.4729
0.4729
0.472958
0.473016
0.473074
0.473132
0.473132
0.473191
0.473249
0.473307
0.473365
0.473365
0.473423
0.473481
0.473539
0.473598
0.473598
0.473656
0.473714
0.473772
0.473831
0.473831
0.473889
0.473948
0.474006
0.474064
0.474064
0.474123
0.474181
0.47424
0.474298
0.474298
0.474357
0.474415
0.474474
0.474533
0.474533
0.474591
0.47465
0.474709
0.474767
0.474767
0.474826
0.474885
0.474944
0.475002
0.475002
0.475061
0.47512
0.475179
0.475238
0.475238
0.475297
0.475356
0.475415
0.475474
0.475474
0.475533
0.475592
0.475651
0.47571
0.47571
0.475769
0.475828
0.475888
0.475947
0.475947
0.476006
0.476065
0.476125
0.476184
0.476184
0.476243
0.476302
0.476362
0.476421
0.476421
0.476481
0.47654
0.4766
0.476659
0.476659
0.476719
0.476778
0.476838
0.476897
0.476897
0.476957
0.477016
0.477076
0.477136
0.477136
0.477196
0.477255
0.477315
0.477375
0.477375
0.477435
0.477494
0.477554
0.477614
0.477614
0.477674
0.477734
0.477794
0.477854
0.477854
0.477914
0.477974
0.478034
0.478094
0.478094
0.478154
0.478214
0.478274
0.478335
0.478335
0.478395
0.478455
0.478515
0.478575
0.478575
0.478636
0.478696
0.478756
0.478817
0.478817
0.478877
0.478938
0.478998
0.479058
0.479058
0.479119
0.479179
0.47924
0.4793
0.4793
0.479361
0.479422
0.479482
0.479543
0.479543
0.479604
0.479664
0.479725
0.479786
0.479786
0.479847
0.479907
0.479968
0.480029
0.480029
0.48009
0.480151
0.480212
0.480273
0.480273
0.480333
0.480394
0.480455
0.480517
0.480517
0.480578
0.480639
0.4807
0.480761
0.480761
0.480822
0.480883
0.480944
0.481006
0.481006
0.481067
0.481128
0.481189
0.481251
0.481251
0.481312
0.481373
0.481435
0.481496
0.481496
0.481558
0.481619
0.481681
0.481742
0.481742
0.481804
0.481865
0.481927
0.481988
0.481988
0.48205
0.482112
0.482173
0.482235
0.482235
0.482297
0.482359
0.48242
0.482482
0.482482
0.482544
0.482606
0.482668
0.48273
0.48273
0.482791
0.482853
0.482915
0.482977
0.482977
0.483039
0.483101
0.483163
0.483225
0.483225
0.483288
0.48335
0.483412
0.483474
0.483474
0.483536
0.483598
0.483661
0.483723
0.483723
0.483785
0.483848
0.48391
0.483972
0.483972
0.484035
0.484097
0.48416
0.484222
0.484222
0.484285
0.484347
0.48441
0.484472
0.484472
0.484535
0.484597
0.48466
0.484723
0.484723
0.484785
0.484848
0.484911
0.484973
0.484973
0.485036
0.485099
0.485162
0.485225
0.485225
0.485288
0.48535
0.485413
0.485476
0.485476
0.485539
0.485602
0.485665
0.485728
0.485728
0.485791
0.485854
0.485917
0.485981
0.485981
0.486044
0.486107
0.48617
0.486233
0.486233
0.486297
0.48636
0.486423
0.486486
0.486486
0.48655
0.486613
0.486677
0.48674
0.48674
0.486803
0.486867
0.48693
0.486994
0.486994
0.487057
0.487121
0.487184
0.487248
0.487248
0.487312
0.487375
0.487439
0.487503
0.487503
0.487566
0.48763
0.487694
0.487758
0.487758
0.487822
0.487885
0.487949
0.488013
0.488013
0.488077
0.488141
0.488205
0.488269
0.488269
0.488333
0.488397
0.488461
0.488525
0.488525
0.488589
0.488653
0.488717
0.488782
0.488782
0.488846
0.48891
0.488974
0.489038
0.489038
0.489103
0.489167
0.489231
0.489296
0.489296
0.48936
0.489425
0.489489
0.489553
0.489553
0.489618
0.489682
0.489747
0.489811
0.489811
0.489876
0.489941
0.490005
0.49007
0.49007
0.490135
0.490199
0.490264
0.490329
0.490329
0.490393
0.490458
0.490523
0.490588
0.490588
0.490653
0.490718
0.490782
0.490847
0.490847
0.490912
0.490977
0.491042
0.491107
0.491107
0.491172
0.491237
0.491302
0.491368
0.491368
0.491433
0.491498
0.491563
0.491628
0.491628
0.491693
0.491759
0.491824
0.491889
0.491889
0.491955
0.49202
0.492085
0.492151
0.492151
0.492216
0.492281
0.492347
0.492412
0.492412
0.492478
0.492543
0.492609
0.492675
0.492675
0.49274
0.492806
0.492871
0.492937
0.492937
0.493003
0.493069
0.493134
0.4932
0.4932
0.493266
0.493332
0.493397
0.493463
0.493463
0.493529
0.493595
0.493661
0.493727
0.493727
0.493793
0.493859
0.493925
0.493991
0.493991
0.494057
0.494123
0.494189
0.494255
0.494255
0.494322
0.494388
0.494454
0.49452
0.49452
0.494586
0.494653
0.494719
0.494785
0.494785
0.494852
0.494918
0.494984
0.495051
0.495051
0.495117
0.495184
0.49525
0.495317
0.495317
0.495383
0.49545
0.495516
0.495583
0.495583
0.49565
0.495716
0.495783
0.49585
0.49585
0.495916
0.495983
0.49605
0.496117
0.496117
0.496183
0.49625
0.496317
0.496384
0.496384
0.496451
0.496518
0.496585
0.496652
0.496652
0.496719
0.496786
0.496853
0.49692
0.49692
0.496987
0.497054
0.497121
0.497188
0.497188
0.497256
0.497323
0.49739
0.497457
0.497457
0.497524
0.497592
0.497659
0.497726
0.497726
0.497794
0.497861
0.497929
0.497996
0.497996
0.498063
0.498131
0.498198
0.498266
0.498266
0.498334
0.498401
0.498469
0.498536
0.498536
0.498604
0.498672
0.498739
0.498807
0.498807
0.498875
0.498943
0.49901
0.499078
0.499078
0.499146
0.499214
0.499282
0.49935
0.49935
0.499418
0.499485
0.499553
0.499621
0.499621
0.499689
0.499757
0.499826
0.499894
0.499894
0.499962
0.50003
0.500098
0.500166
0.500166
0.500234
0.500303
0.500371
0.500439
0.500439
0.500507
0.500576
0.500644
0.500712
0.500712
0.500781
0.500849
0.500918
0.500986
0.500986
0.501054
0.501123
0.501192
0.50126
0.50126
0.501329
0.501397
0.501466
0.501534
0.501534
0.501603
0.501672
0.50174
0.501809
0.501809
0.501878
0.501947
0.502016
0.502084
0.502084
0.502153
0.502222
0.502291
0.50236
0.50236
0.502429
0.502498
0.502567
0.502636
0.502636
0.502705
0.502774
0.502843
0.502912
0.502912
0.502981
0.50305
0.503119
0.503189
0.503189
0.503258