<?xml version="1.0"?>
<VTKFile type="UnstructuredGrid" version="0.1" byte_order="LittleEndian">
<UnstructuredGrid>
<Piece NumberOfPoints="5000" NumberOfCells="4000">
<PointData Scalars="Reaction 0">
<DataArray type="Float32" Name="Reaction 0" format="ascii">
0.695391
0.695391
0.695391
0.695391
0.695391
0.695391
0.695391
0.695391
0.695391
0.695391
0.695391
0.695392
0.695392
0.695392
0.695392
0.695392
0.695392
0.695392
0.695393
0.695393
0.695393
0.695393
0.695393
0.695394
0.695394
0.695394
0.695394
0.695394
0.695395
0.695395
0.695395
0.695395
0.695396
0.695396
0.695396
0.695396
0.695397
0.695397
0.695398
0.695398
0.695398
0.695399
0.695399
0.6954
0.6954
0.6954
0.6954
0.695401
0.695402
0.695402
0.695402
0.695403
0.695403
0.695404
0.695404
0.695404
0.695405
0.695406
0.695406
0.695407
0.695407
0.695408
0.695408
0.695409
0.69541
0.69541
0.69541
0.695411
0.695412
0.695413
0.695413
0.695414
0.695414
0.695415
0.695416
0.695416
0.695417
0.695418
0.695418
0.695419
0.695419
0.69542
0.695421
0.695422
0.695423
0.695423
0.695424
0.695425
0.695426
0.695427
0.695427
0.695428
0.695429
0.69543
0.695431
0.695431
0.695432
0.695433
0.695434
0.695435
0.695435
0.695436
0.695438
0.695439
0.69544
0.69544
0.695441
0.695442
0.695443
0.695445
0.695445
0.695446
0.695447
0.695448
0.69545
0.69545
0.695451
0.695452
0.695453
0.695455
0.695455
0.695456
0.695457
0.695459
0.69546
0.69546
0.695462
0.695463
0.695464
0.695466
0.695466
0.695467
0.695469
0.69547
0.695472
0.695472
0.695473
0.695475
0.695476
0.695478
0.695478
0.695479
0.695481
0.695483
0.695484
0.695484
0.695486
0.695487
0.695489
0.695491
0.695491
0.695492
0.695494
0.695496
0.695497
0.695497
0.695499
0.695501
0.695503
0.695504
0.695504
0.695506
0.695508
0.69551
0.695512
0.695512
0.695513
0.695515
0.695517
0.695519
0.695519
0.695521
0.695523
0.695525
0.695527
0.695527
0.695529
0.695531
0.695533
0.695534
0.695534
0.695536
0.695539
0.695541
0.695543
0.695543
0.695545
0.695547
0.695549
0.695551
0.695551
0.695553
0.695555
0.695557
0.695559
0.695559
0.695562
0.695564
0.695566
0.695568
0.695568
0.69557
0.695573
0.695575
0.695577
0.695577
0.695579
0.695582
0.695584
0.695586
0.695586
0.695589
0.695591
0.695593
0.695596
0.695596
0.695598
0.6956
0.695603
0.695605
0.695605
0.695608
0.69561
0.695613
0.695615
0.695615
0.695618
0.69562
0.695623
0.695625
0.695625
0.695628
0.69563
0.695633
0.695636
0.695636
0.695638
0.695641
0.695643
0.695646
0.695646
0.695649
0.695651
0.695654
0.695657
0.695657
0.69566
0.695662
0.695665
0.695668
0.695668
0.695671
0.695673
0.695676
0.695679
0.695679
0.695682
0.695685
0.695687
0.69569
0.69569
0.695693
0.695696
0.695699
0.695702
0.695702
0.695705
0.695708
0.695711
0.695714
0.695714
0.695717
0.69572
0.695723
0.695726
0.695726
0.695729
0.695732
0.695735
0.695738
0.695738
0.695741
0.695744
0.695748
0.695751
0.695751
0.695754
0.695757
0.69576
0.695763
0.695763
0.695767
0.69577
0.695773
0.695776
0.695776
0.69578
0.695783
0.695786
0.69579
0.69579
0.695793
0.695796
0.6958
0.695803
0.695803
0.695806
0.69581
0.695813
0.695817
0.695817
0.69582
0.695823
0.695827
0.69583
0.69583
0.695834
0.695837
0.695841
0.695844
0.695844
0.695848
0.695852
0.695855
0.695859
0.695859
0.695862
0.695866
0.69587
0.695873
0.695873
0.695877
0.695881
0.695884
0.695888
0.695888
0.695892
0.695895
0.695899
0.695903
0.695903
0.695907
0.69591
0.695914
0.695918
0.695918
0.695922
0.695926
0.69593
0.695933
0.695933
0.695937
0.695941
0.695945
0.695949
0.695949
0.695953
0.695957
0.695961
0.695965
0.695965
0.695969
0.695973
0.695977
0.695981
0.695981
0.695985
0.695989
0.695993
0.695997
0.695997
0.696001
0.696005
0.696009
0.696014
0.696014
0.696018
0.696022
0.696026
0.69603
0.69603
0.696035
0.696039
0.696043
0.696047
0.696047
0.696052
0.696056
0.69606
0.696064
0.696064
0.696069
0.696073
0.696077
0.696082
0.696082
0.696086
0.696091
0.696095
0.696099
0.696099
0.696104
0.696108
0.696113
0.696117
0.696117
0.696122
0.696126
0.696131
0.696135
0.696135
0.69614
0.696144
0.696149
0.696153
0.696153
0.696158
0.696163
0.696167
0.696172
0.696172
0.696177
0.696181
0.696186
0.696191
0.696191
0.696195
0.6962
0.696205
0.69621
0.69621
0.696214
0.696219
0.696224
0.696229
0.696229
0.696234
0.696238
0.696243
0.696248
0.696248
0.696253
0.696258
0.696263
0.696268
0.696268
0.696273
0.696278
0.696282
0.696287
0.696287
0.696292
0.696297
0.696302
0.696307
0.696307
0.696313
0.696318
0.696323
0.696328
0.696328
0.696333
0.696338
0.696343
0.696348
0.696348
0.696353
0.696358
0.696364
0.696369
0.696369
0.696374
0.696379
0.696385
0.69639
0.69639
0.696395
0.6964
0.696406
0.696411
0.696411
0.696416
0.696422
0.696427
0.696432
0.696432
0.696438
0.696443
0.696448
0.696454
0.696454
0.696459
0.696465
0.69647
0.696476
0.696476
0.696481
0.696487
0.696492
0.696498
0.696498
0.696503
0.696509
0.696514
0.69652
0.69652
0.696525
0.696531
0.696537
0.696542
0.696542
0.696548
0.696554
0.696559
0.696565
0.696565
0.696571
0.696576
0.696582
0.696588
0.696588
0.696594
0.696599
0.696605
0.696611
0.696611
0.696617
0.696623
0.696628
0.696634
0.696634
0.69664
0.696646
0.696652
0.696658
0.696658
0.696664
0.69667
0.696676
0.696682
0.696682
0.696688
0.696694
0.6967
0.696706
0.696706
0.696712
0.696718
0.696724
0.69673
0.69673
0.696736
0.696742
0.696748
0.696754
0.696754
0.69676
0.696767
0.696773
0.696779
0.696779
0.696785
0.696791
0.696798
0.696804
0.696804
0.69681
0.696816
0.696823
0.696829
0.696829
0.696835
0.696842
0.696848
0.696854
0.696854
0.696861
0.696867
0.696873
0.69688
0.69688
0.696886
0.696893
0.696899
0.696906
0.696906
0.696912
0.696919
0.696925
0.696932
0.696932
0.696938
0.696945
0.696951
0.696958
0.696958
0.696964
0.696971
0.696978
0.696984
0.696984
0.696991
0.696998
0.697004
0.697011
0.697011
0.697018
0.697024
0.697031
0.697038
0.697038
0.697045
0.697051
0.697058
0.697065
0.697065
0.697072
0.697078
0.697085
0.697092
0.697092
0.697099
0.697106
0.697113
0.69712
0.69712
0.697127
0.697134
0.69714
0.697147
0.697147
0.697154
0.697161
0.697168
0.697175
0.697175
0.697182
0.697189
0.697197
0.697204
0.697204
0.697211
0.697218
0.697225
0.697232
0.697232
0.697239
0.697246
0.697253
0.697261
0.697261
0.697268
0.697275
0.697282
0.697289
0.697289
0.697297
0.697304
0.697311
0.697319
0.697319
0.697326
0.697333
0.697341
0.697348
0.697348
0.697355
0.697363
0.69737
0.697377
0.697377
0.697385
0.697392
0.6974
0.697407
0.697407
0.697415
0.697422
0.69743
0.697437
0.697437
0.697445
0.697452
0.69746
0.697467
0.697467
0.697475
0.697482
0.69749
0.697498
0.697498
0.697505
0.697513
0.697521
0.697528
0.697528
0.697536
0.697544
0.697551
0.697559
0.697559
0.697567
0.697575
0.697582
0.69759
0.69759
0.697598
0.697606
0.697614
0.697621
0.697621
0.697629
0.697637
0.697645
0.697653
0.697653
0.697661
0.697669
0.697677
0.697685
0.697685
0.697693
0.697701
0.697709
0.697717
0.697717
0.697725
0.697733
0.697741
0.697749
0.697749
0.697757
0.697765
0.697773
0.697781
0.697781
0.697789
0.697797
0.697806
0.697814
0.697814
0.697822
0.69783
0.697838
0.697847
0.697847
0.697855
0.697863
0.697871
0.69788
0.69788
0.697888
0.697896
0.697905
0.697913
0.697913
0.697921
0.69793
0.697938
0.697946
0.697946
0.697955
0.697963
0.697972
0.69798
0.69798
0.697988
0.697997
0.698005
0.698014
0.698014
0.698022
0.698031
0.69804
0.698048
0.698048
0.698057
0.698065
0.698074
0.698082
0.698082
0.698091
0.6981
0.698108
0.698117
0.698117
0.698126
0.698134
0.698143
0.698152
0.698152
0.698161
0.698169
0.698178
0.698187
0.698187
0.698196
0.698204
0.698213
0.698222
0.698222
0.698231
0.69824
0.698249
0.698258
0.698258
0.698266
0.698275
0.698284
0.698293
0.698293
0.698302
0.698311
0.69832
0.698329
0.698329
0.698338
0.698347
0.698356
0.698365
0.698365
0.698374
0.698383
0.698392
0.698402
0.698402
0.698411
0.69842
0.698429
0.698438
0.698438
0.698447
0.698457
0.698466
0.698475
0.698475
0.698484
0.698493
0.698503
0.698512
0.698512
0.698521
0.698531
0.69854
0.698549
0.698549
0.698558
0.698568
0.698577
0.698587
0.698587
0.698596
0.698605
0.698615
0.698624
0.698624
0.698634
0.698643
0.698653
0.698662
0.698662
0.698672
0.698681
0.698691
0.6987
0.6987
0.69871
0.698719
0.698729
0.698739
0.698739
0.698748
0.698758
0.698767
0.698777
0.698777
0.698787
0.698796
0.698806
0.698816
0.698816
0.698826
0.698835
0.698845
0.698855
0.698855
0.698865
0.698874
0.698884
0.698894
0.698894
0.698904
0.698914
0.698924
0.698933
0.698933
0.698943
0.698953
0.698963
0.698973
0.698973
0.698983
0.698993
0.699003
0.699013
0.699013
0.699023
0.699033
0.699043
0.699053
0.699053
0.699063
0.699073
0.699083
0.699093
0.699093
0.699103
0.699114
0.699124
0.699134
0.699134
0.699144
0.699154
0.699164
0.699175
0.699175
0.699185
0.699195
0.699205
0.699216
0.699216
0.699226
0.699236
0.699246
0.699257
0.699257
0.699267
0.699277
0.699288
0.699298
0.699298
0.699308
0.699319
0.699329
0.69934
0.69934
0.69935
0.699361
0.699371
0.699382
0.699382
0.699392
0.699403
0.699413
0.699424
0.699424
0.699434
0.699445
0.699455
0.699466
0.699466
0.699476
0.699487
0.699498
0.699508
0.699508
0.699519
0.69953
0.69954
0.699551
0.699551
0.699562
0.699572
0.699583
0.699594
0.699594
0.699605
0.699616
0.699626
0.699637
0.699637
0.699648
0.699659
0.69967
0.69968
0.69968
0.699691
0.699702
0.699713
0.699724
0.699724
0.699735
0.699746
0.699757
0.699768
0.699768
0.699779
0.69979
0.699801
0.699812
0.699812
0.699823
0.699834
0.699845
0.699856
0.699856
0.699867
0.699878
0.699889
0.699901
0.699901
0.699912
0.699923
0.699934
0.699945
0.699945
0.699956
0.699968
0.699979
0.69999
0.69999
0.700001
0.700013
0.700024
0.700035
0.700035
0.700047
0.700058
0.700069
0.700081
0.700081
0.700092
0.700103
0.700115
0.700126
0.700126
0.700138
0.700149
0.700161
0.700172
0.700172
0.700183
0.700195
0.700206
0.700218
0.700218
0.70023
0.700241
0.700253
0.700264
0.700264
0.700276
0.700287
0.700299
0.700311
0.700311
0.700322
0.700334
0.700346
0.700357
0.700357
0.700369
0.700381
0.700392
0.700404
0.700404
0.700416
0.700428
0.700439
0.700451
0.700451
0.700463
0.700475
0.700487
0.700499
0.700499
0.70051
0.700522
0.700534
0.700546
0.700546
0.700558
0.70057
0.700582
0.700594
0.700594
0.700606
0.700618
0.70063
0.700642
0.700642
0.700654
0.700666
0.700678
0.70069
0.70069
0.700702
0.700714
0.700726
0.700738
0.700738
0.700751
0.700763
0.700775
0.700787
0.700787
0.700799
0.700811
0.700824
0.700836
0.700836
0.700848
0.70086
0.700873
0.700885
0.700885
0.700897
0.70091
0.700922
0.700934
0.700934
0.700947
0.700959
0.700971
0.700984
0.700984
0.700996
0.701009
0.701021
0.701033
0.701033
0.701046
0.701058
0.701071
0.701083
0.701083
0.701096
0.701108
0.701121
0.701133
0.701133
0.701146
0.701159
0.701171
0.701184
0.701184
0.701196
0.701209
0.701222
0.701234
0.701234
0.701247
0.70126
0.701273
0.701285
0.701285
0.701298
0.701311
0.701324
0.701336
0.701336
0.701349
0.701362
0.701375
0.701388
0.701388
0.7014
0.701413
0.701426
0.701439
0.701439
0.701452
0.701465
0.701478
0.701491
0.701491
0.701504
0.701517
0.70153
0.701543
0.701543
0.701556
0.701569
0.701582
0.701595
0.701595
0.701608
0.701621
0.701634
0.701647
0.701647
0.70166
0.701673
0.701686
0.7017
0.7017
0.701713
0.701726
0.701739
0.701752
0.701752
0.701766
0.701779
0.701792
0.701805
0.701805
0.701819
0.701832
0.701845
0.701859
0.701859
0.701872
0.701885
0.701899
0.701912
0.701912
0.701925
0.701939
0.701952
0.701966
0.701966
0.701979
0.701993
0.702006
0.702019
0.702019
0.702033
0.702047
0.70206
0.702074
0.702074
0.702087
0.702101
0.702114
0.702128
0.702128
0.702141
0.702155
0.702169
0.702182
0.702182
0.702196
0.70221
0.702223
0.702237
0.702237
0.702251
0.702265
0.702278
0.702292
0.702292
0.702306
0.70232
0.702333
0.702347
0.702347
0.702361
0.702375
0.702389
0.702403
0.702403
0.702417
0.70243
0.702444
0.702458
0.702458
0.702472
0.702486
0.7025
0.702514
0.702514
0.702528
0.702542
0.702556
0.70257
0.70257
0.702584
0.702598
0.702612
0.702626
0.702626
0.70264
0.702655
0.702669
0.702683
0.702683
0.702697
0.702711
0.702725
0.70274
0.70274
0.702754
0.702768
0.702782
0.702796
0.702796
0.702811
0.702825
0.702839
0.702854
0.702854
0.702868
0.702882
0.702897
0.702911
0.702911
0.702925
0.70294
0.702954
0.702969
0.702969
0.702983
0.702997
0.703012
0.703026
0.703026
0.703041
0.703055
0.70307
0.703084
0.703084
0.703099
0.703113
0.703128
0.703143
0.703143
0.703157
0.703172
0.703186
0.703201
0.703201
0.703216
0.70323
0.703245
0.70326
0.70326
0.703274
0.703289
0.703304
0.703318
0.703318
0.703333
0.703348
0.703363
0.703378
0.703378
0.703392
0.703407
0.703422
0.703437
0.703437
0.703452
0.703467
0.703481
0.703496
0.703496
0.703511
0.703526
0.703541
0.703556
0.703556
0.703571
0.703586
0.703601
0.703616
0.703616
0.703631
0.703646
0.703661
0.703676
0.703676
0.703691
0.703706
0.703722
0.703737
0.703737
0.703752
0.703767
0.703782
0.703797
0.703797
0.703812
0.703828
0.703843
0.703858
0.703858
0.703873
0.703889
0.703904
0.703919
0.703919
0.703934
0.70395
0.703965
0.70398
0.70398
0.703996
0.704011
0.704026
0.704042
0.704042
0.704057
0.704073
0.704088
0.704104
0.704104
0.704119
0.704134
0.70415
0.704165
0.704165
0.704181
0.704197
0.704212
0.704228
0.704228
0.704243
0.704259
0.704274
0.70429
0.70429
0.704306
0.704321
0.704337
0.704353
0.704353
0.704368
0.704384
0.7044
0.704415
0.704415
0.704431
0.704447
0.704463
0.704478
0.704478
0.704494
0.70451
0.704526
0.704541
0.704541
0.704557
0.704573
0.704589
0.704605
0.704605
0.704621
0.704637
0.704653
0.704669
0.704669
0.704685
0.7047
0.704716
0.704732
0.704732
0.704748
0.704764
0.70478
0.704797
0.704797
0.704813
0.704829
0.704845
0.704861
0.704861
0.704877
0.704893
0.704909
0.704925
0.704925
0.704941
0.704958
0.704974
0.70499
0.70499
0.705006
0.705022
0.705039
0.705055
0.705055
0.705071
0.705088
0.705104
0.70512
0.70512
0.705136
0.705153
0.705169
0.705186
0.705186
0.705202
0.705218
0.705235
0.705251
0.705251
0.705268
0.705284
0.7053
0.705317
0.705317
0.705333
0.70535
0.705366
0.705383
0.705383
0.705399
0.705416
0.705433
0.705449
0.705449
0.705466
0.705482
0.705499
0.705516
0.705516
0.705532
0.705549
0.705566
0.705582
0.705582
0.705599
0.705616
0.705632
0.705649
0.705649
0.705666
0.705683
0.7057
0.705716
0.705716
0.705733
0.70575
0.705767
0.705784
0.705784
0.705801
0.705817
0.705834
0.705851
0.705851
0.705868
0.705885
0.705902
0.705919
0.705919
0.705936
0.705953
0.70597
0.705987
0.705987
0.706004
0.706021
0.706038
0.706055
0.706055
0.706072
0.706089
0.706106
0.706123
0.706123
0.706141
0.706158
0.706175
0.706192
0.706192
0.706209
0.706227
0.706244
0.706261
0.706261
0.706278
0.706295
0.706313
0.70633
0.70633
0.706347
0.706365
0.706382
0.706399
0.706399
0.706417
0.706434
0.706451
0.706469
0.706469
0.706486
0.706504
0.706521
0.706538
0.706538
0.706556
0.706573
0.706591
0.706608
0.706608
0.706626
0.706643
0.706661
0.706678
0.706678
0.706696
0.706714
0.706731
0.706749
0.706749
0.706766
0.706784
0.706802
0.706819
0.706819
0.706837
0.706855
0.706872
0.70689
0.70689
0.706908
0.706926
0.706943
0.706961
0.706961
0.706979
0.706997
0.707015
0.707032
0.707032
0.70705
0.707068
0.707086
0.707104
0.707104
0.707122
0.70714
0.707157
0.707175
0.707175
0.707193
0.707211
0.707229
0.707247
0.707247
0.707265
0.707283
0.707301
0.707319
0.707319
0.707337
0.707355
0.707374
0.707392
0.707392
0.70741
0.707428
0.707446
0.707464
0.707464
0.707482
0.7075
0.707519
0.707537
0.707537
0.707555
0.707573
0.707591
0.70761
0.70761
0.707628
0.707646
0.707665
0.707683
0.707683
0.707701
0.70772
0.707738
0.707756
0.707756
0.707775
0.707793
0.707811
0.70783
0.70783
0.707848
0.707867
0.707885
0.707904
0.707904
0.707922
0.707941
0.707959
0.707978
0.707978
0.707996
0.708015
0.708033
0.708052
0.708052
0.70807
0.708089
0.708108
0.708126
0.708126
0.708145
0.708164
0.708182
0.708201
0.708201
0.70822
0.708238
0.708257
0.708276
0.708276
0.708295
0.708313
0.708332
0.708351
0.708351
0.70837
0.708388
0.708407
0.708426
0.708426
0.708445
0.708464
0.708483
0.708502
0.708502
0.708521
0.708539
0.708558
0.708577
0.708577
0.708596
0.708615
0.708634
0.708653
0.708653
0.708672
0.708691
0.70871
0.708729
0.708729
0.708749
0.708768
0.708787
0.708806
0.708806
0.708825
0.708844
0.708863
0.708882
0.708882
0.708902
0.708921
0.70894
0.708959
0.708959
0.708978
0.708998
0.709017
0.709036
0.709036
0.709055
0.709075
0.709094
0.709113
0.709113
0.709133
0.709152
0.709171
0.709191
0.709191
0.70921
0.70923
0.709249
0.709268
0.709268
0.709288
0.709307
0.709327
0.709346
0.709346
0.709366
0.709385
0.709405
0.709424
0.709424
0.709444
0.709464
0.709483
0.709503
0.709503
0.709522
0.709542
0.709562
0.709581
0.709581
0.709601
0.709621
0.70964
0.70966
0.70966
0.70968
0.709699
0.709719
0.709739
0.709739
0.709759
0.709778
0.709798
0.709818
0.709818
0.709838
0.709858
0.709878
0.709897
0.709897
0.709917
0.709937
0.709957
0.709977
0.709977
0.709997
0.710017
0.710037
0.710057
0.710057
0.710077
0.710097
0.710117
0.710137
0.710137
0.710157
0.710177
0.710197
0.710217
0.710217
0.710237
0.710257
0.710277
0.710297
0.710297
0.710318
0.710338
0.710358
0.710378
0.710378
0.710398
0.710418
0.710439
0.710459
0.710459
0.710479
0.710499
0.71052
0.71054
0.71054
0.71056
0.710581
0.710601
0.710621
0.710621
0.710642
0.710662
0.710682
0.710703
0.710703
0.710723
0.710744
0.710764
0.710784
0.710784
0.710805
0.710825
0.710846
0.710866
0.710866
0.710887
0.710907
0.710928
0.710948
0.710948
0.710969
0.71099
0.71101
0.711031
0.711031
0.711051
0.711072
0.711093
0.711113
0.711113
0.711134
0.711155
0.711175
0.711196
0.711196
0.711217
0.711238
0.711258
0.711279
0.711279
0.7113
0.711321
0.711342
0.711362
0.711362
0.711383
0.711404
0.711425
0.711446
0.711446
0.711467
0.711488
0.711508
0.711529
0.711529
0.71155
0.711571
0.711592
0.711613
0.711613
0.711634
0.711655
0.711676
0.711697
0.711697
0.711718
0.711739
0.71176
0.711782
0.711782
0.711803
0.711824
0.711845
0.711866
0.711866
0.711887
0.711908
0.71193
0.711951
0.711951
0.711972
0.711993
0.712014
0.712036
0.712036
0.712057
0.712078
0.712099
0.712121
0.712121
0.712142
0.712163
0.712185
0.712206
0.712206
0.712227
0.712249
0.71227
0.712292
0.712292
0.712313
0.712334
0.712356
0.712377
0.712377
0.712399
0.71242
0.712442
0.712463
0.712463
0.712485
0.712506
0.712528
0.71255
0.71255
0.712571
0.712593
0.712614
0.712636
0.712636
0.712658
0.712679
0.712701
0.712723
0.712723
0.712744
0.712766
0.712788
0.712809
0.712809
0.712831
0.712853
0.712875
0.712896
0.712896
0.712918
0.71294
0.712962
0.712984
0.712984
0.713005
0.713027
0.713049
0.713071
0.713071
0.713093
0.713115
0.713137
0.713159
0.713159
0.713181
0.713203
0.713225
0.713247
0.713247
0.713269
0.713291
0.713313
0.713335
0.713335
0.713357
0.713379
0.713401
0.713423
0.713423
0.713445
0.713467
0.713489
0.713511
0.713511
0.713534
0.713556
0.713578
0.7136
0.7136
0.713622
0.713645
0.713667
0.713689
0.713689
0.713711
0.713734
0.713756
0.713778
0.713778
0.713801
0.713823
0.713845
0.713868
0.713868
0.71389
0.713912
0.713935
0.713957
0.713957
0.71398
0.714002
0.714025
0.714047
0.714047
0.714069
0.714092
0.714114
0.714137
0.714137
0.71416
0.714182
0.714205
0.714227
0.714227
0.71425
0.714272
0.714295
0.714318
0.714318
0.71434
0.714363
0.714386
0.714408
0.714408
0.714431
0.714454
0.714476
0.714499
0.714499
0.714522
0.714545
0.714567
0.71459
0.71459
0.714613
0.714636
0.714659
0.714681
0.714681
0.714704
0.714727
0.71475
0.714773
0.714773
0.714796
0.714819
0.714842
0.714865
0.714865
0.714887
0.71491
0.714933
0.714956
0.714956
0.714979
0.715002
0.715025
0.715049
0.715049
0.715072
0.715095
0.715118
0.715141
0.715141
0.715164
0.715187
0.71521
0.715233
0.715233
0.715257
0.71528
0.715303
0.715326
0.715326
0.715349
0.715373
0.715396
0.715419
0.715419
0.715442
0.715466
0.715489
0.715512
0.715512
0.715536
0.715559
0.715582
0.715606
0.715606
0.715629
0.715652
0.715676
0.715699
0.715699
0.715723
0.715746
0.715769
0.715793
0.715793
0.715816
0.71584
0.715863
0.715887
0.715887
0.71591
0.715934
0.715958
0.715981
0.715981
0.716005
0.716028
0.716052
0.716076
0.716076
0.716099
0.716123
0.716147
0.71617
0.71617
0.716194
0.716218
0.716241
0.716265
0.716265
0.716289
0.716313
0.716336
0.71636
0.71636
0.716384
0.716408
0.716431
0.716455
0.716455
0.716479
0.716503
0.716527
0.716551
0.716551
0.716575
0.716599
0.716623
0.716646
0.716646
0.71667
0.716694
0.716718
0.716742
0.716742
0.716766
0.71679
0.716814
0.716838
0.716838
0.716863
0.716887
0.716911
0.716935
0.716935
0.716959
0.716983
0.717007
0.717031
0.717031
0.717055
0.71708
0.717104
0.717128
0.717128
0.717152
0.717176
0.717201
0.717225
0.717225
0.717249
0.717274
0.717298
0.717322
0.717322
0.717346
0.717371
0.717395
0.717419
0.717419
0.717444
0.717468
0.717493
0.717517
0.717517
0.717541
0.717566
0.71759
0.717615
0.717615
0.717639
0.717664
0.717688
0.717713
0.717713
0.717737
0.717762
0.717786
0.717811
0.717811
0.717836
0.71786
0.717885
0.717909
0.717909
0.717934
0.717959
0.717983
0.718008
0.718008
0.718033
0.718057
0.718082
0.718107
0.718107
0.718132
0.718156
0.718181
0.718206
0.718206
0.718231
0.718255
0.71828
0.718305
0.718305
0.71833
0.718355
0.71838
0.718405
0.718405
0.718429
0.718454
0.718479
0.718504
0.718504
0.718529
0.718554
0.718579
0.718604
0.718604
0.718629
0.718654
0.718679
0.718704
0.718704
0.718729
0.718754
0.718779
0.718804
0.718804
0.71883
0.718855
0.71888
0.718905
0.718905
0.71893
0.718955
0.71898
0.719006
0.719006
0.719031
0.719056
0.719081
0.719107
0.719107
0.719132
0.719157
0.719182
0.719208
0.719208
0.719233
0.719258
0.719284
0.719309
0.719309
0.719334
0.71936
0.719385
0.719411
0.719411
0.719436
0.719461
0.719487
0.719512
0.719512
0.719538
0.719563
0.719589
0.719614
0.719614
0.71964
0.719665
0.719691
0.719716
0.719716
0.719742
0.719768
0.719793
0.719819
0.719819
0.719844
0.71987
0.719896
0.719921
0.719921
0.719947
0.719973
0.719998
0.720024
0.720024
0.72005
0.720076
0.720101
0.720127
0.720127
0.720153
0.720179
0.720205
0.72023
0.72023
0.720256
0.720282
0.720308
0.720334
0.720334
0.72036
0.720386
0.720411
0.720437
0.720437
0.720463
0.720489
0.720515
0.720541
0.720541
0.720567
0.720593
0.720619
0.720645
0.720645
0.720671
0.720697
0.720723
0.720749
0.720749
0.720776
0.720802
0.720828
0.720854
0.720854
0.72088
0.720906
0.720932
0.720959
0.720959
0.720985
0.721011
0.721037
0.721063
0.721063
0.72109
0.721116
0.721142
0.721168
0.721168
0.721195
0.721221
0.721247
0.721274
0.721274
0.7213
0.721326
0.721353
0.721379
0.721379
0.721406
0.721432
0.721458
0.721485
0.721485
0.721511
0.721538
0.721564
0.721591
0.721591
0.721617
0.721644
0.72167
0.721697
0.721697
0.721723
0.72175
0.721777
0.721803
0.721803
0.72183
0.721856
0.721883
0.72191
0.72191
0.721936
0.721963
0.72199
0.722016
0.722016
0.722043
0.72207
0.722097
0.722123
0.722123
0.72215
0.722177
0.722204
0.722231
0.722231
0.722257
0.722284
0.722311
0.722338
0.722338
0.722365
0.722392
0.722419
0.722445
0.722445
0.722472
0.722499
0.722526
0.722553
0.722553
0.72258
0.722607
0.722634
0.722661
0.722661
0.722688
0.722715
0.722742
0.722769
0.722769
0.722796
0.722824
0.722851
0.722878
0.722878
0.722905
0.722932
0.722959
0.722986
0.722986
0.723013
0.723041
0.723068
0.723095
0.723095
0.723122
0.72315
0.723177
0.723204
0.723204
0.723231
0.723259
0.723286
0.723313
0.723313
0.723341
0.723368
0.723395
0.723423
0.723423
0.72345
0.723477
0.723505
0.723532
0.723532
0.72356
0.723587
0.723615
0.723642
0.723642
0.72367
0.723697
0.723725
0.723752
0.723752
0.72378
0.723807
0.723835
0.723862
0.723862
0.72389
0.723918
0.723945
0.723973
0.723973
0.724
0.724028
0.724056
0.724083
0.724083
0.724111
0.724139
0.724167
0.724194
0.724194
0.724222
0.72425
0.724278
0.724305
0.724305
0.724333
0.724361
0.724389
0.724417
0.724417
0.724444
0.724472
0.7245
0.724528
0.724528
0.724556
0.724584
0.724612
0.72464
0.72464
0.724668
0.724696
0.724724
0.724752
0.724752
0.72478
0.724808
0.724836
0.724864
0.724864
0.724892
0.72492
0.724948
0.724976
0.724976
0.725004
0.725032
0.72506
0.725089
0.725089
0.725117
0.725145
0.725173
0.725201
0.725201
0.725229
0.725258
0.725286
0.725314
0.725314
0.725342
0.725371
0.725399
0.725427
0.725427
0.725456
0.725484
0.725512
0.725541
0.725541
0.725569
0.725597
0.725626
0.725654
0.725654
0.725682
0.725711
0.725739
0.725768
0.725768
0.725796
0.725825
0.725853
0.725882
0.725882
0.72591
0.725939
0.725967
0.725996
0.725996
0.726024
0.726053
0.726082
0.72611
0.72611
0.726139
0.726167
0.726196
0.726225
0.726225
0.726253
0.726282
0.726311
0.726339
0.726339
0.726368
0.726397
0.726426
0.726454
0.726454
0.726483
0.726512
0.726541
0.726569
0.726569
0.726598
0.726627
0.726656
0.726685
0.726685
0.726714
0.726743
0.726771
0.7268
0.7268
0.726829
0.726858
0.726887
0.726916
0.726916
0.726945
0.726974
0.727003
0.727032
0.727032
0.727061
0.72709
0.727119
0.727148
0.727148
0.727177
0.727206
0.727236
0.727265
0.727265
0.727294
0.727323
0.727352
0.727381
0.727381
0.72741
0.72744
0.727469
0.727498
0.727498
0.727527
0.727556
0.727586
0.727615
0.727615
0.727644
0.727674
0.727703
0.727732
0.727732
0.727761
0.727791
0.72782
0.72785
0.72785
0.727879
0.727908
0.727938
0.727967
0.727967
0.727997
0.728026
0.728055
0.728085
0.728085
0.728114
0.728144
0.728173
0.728203
0.728203
0.728232
0.728262
0.728292
0.728321
0.728321
0.728351
0.72838
0.72841
0.72844
0.72844
0.728469
0.728499
0.728528
0.728558
0.728558
0.728588
0.728618
0.728647
0.728677
0.728677
0.728707
0.728736
0.728766
0.728796
0.728796
0.728826
0.728856
0.728885
0.728915
0.728915
0.728945
0.728975
0.729005
0.729035
0.729035
0.729064
0.729094
0.729124
0.729154
0.729154
0.729184
0.729214
0.729244
0.729274
0.729274
0.729304
0.729334
0.729364
0.729394
0.729394
0.729424
0.729454
0.729484
0.729514
0.729514
0.729544
0.729574
0.729605
0.729635
0.729635
0.729665
0.729695
0.729725
0.729755
0.729755
0.729785
0.729816
0.729846
0.729876
0.729876
0.729906
0.729937
0.729967
0.729997
0.729997
0.730027
0.730058
0.730088
0.730118
0.730118
0.730149
0.730179
0.730209
0.73024
0.73024
0.73027
0.730301
0.730331
0.730361
0.730361
0.730392
0.730422
0.730453
0.730483
0.730483
0.730514
0.730544
0.730575
0.730605
0.730605
0.730636
0.730666
0.730697
0.730728
0.730728
0.730758
0.730789
0.730819
0.73085
0.73085
0.730881
0.730911
0.730942
0.730973
0.730973
0.731003
0.731034
0.731065
0.731096
0.731096
0.731126
0.731157
0.731188
0.731219
0.731219
0.731249
0.73128
0.731311
0.731342
0.731342
0.731373
0.731404
0.731434
0.731465
0.731465
0.731496
0.731527
0.731558
0.731589
0.731589
0.73162
0.731651
0.731682
0.731713
0.731713
0.731744
0.731775
0.731806
0.731837
0.731837
0.731868
0.731899
0.73193
0.731961
0.731961
0.731992
0.732023
0.732054
0.732086
0.732086
0.732117
0.732148
0.732179
0.73221
0.73221
0.732241
0.732273
0.732304
0.732335
0.732335
0.732366
0.732398
0.732429
0.73246
0.73246
0.732491
0.732523
0.732554
0.732585
0.732585
0.732617
0.732648
0.732679
0.732711
0.732711
0.732742
0.732774
0.732805
0.732836
0.732836
0.732868
0.732899
0.732931
0.732962
0.732962
0.732994
0.733025
0.733057
0.733088
0.733088
0.73312
0.733151
0.733183
0.733215
0.733215
0.733246
0.733278
0.733309
0.733341
0.733341
0.733373
0.733404
0.733436
0.733468
0.733468
0.733499
0.733531
0.733563
0.733595
0.733595
0.733626
0.733658
0.73369
0.733722
0.733722
0.733753
0.733785
0.733817
0.733849
0.733849
0.733881
0.733913
0.733944
0.733976
0.733976
0.734008
0.73404
0.734072
0.734104
0.734104
0.734136
0.734168
0.7342
0.734232
0.734232
0.734264
0.734296
0.734328
0.73436
0.73436
0.734392
0.734424
0.734456
0.734488
0.734488
0.73452
0.734552
0.734584
0.734617
0.734617
0.734649
0.734681
0.734713
0.734745
0.734745
0.734777
0.73481
0.734842
0.734874
0.734874
0.734906
0.734939
0.734971
0.735003
0.735003
0.735035
0.735068
0.7351
0.735132
0.735132
0.735165
0.735197
0.735229
0.735262
0.735262
0.735294
0.735327
0.735359
0.735391
0.735391
0.735424
0.735456
0.735489
0.735521
0.735521
0.735554
0.735586
0.735619
0.735651
0.735651
0.735684
0.735716
0.735749
0.735781
0.735781
0.735814
0.735847
0.735879
0.735912
0.735912
0.735945
0.735977
0.73601
0.736043
0.736043
0.736075
0.736108
0.736141
0.736173
0.736173
0.736206
0.736239
0.736272
0.736304
0.736304
0.736337
0.73637
0.736403
0.736436
0.736436
0.736468
0.736501
0.736534
0.736567
0.736567
0.7366
0.736633
0.736666
0.736699
0.736699
0.736732
0.736765
0.736797
0.73683
0.73683
0.736863
0.736896
0.736929
0.736962
0.736962
0.736996
0.737029
0.737062
0.737095
0.737095
0.737128
0.737161
0.737194
0.737227
0.737227
0.73726
0.737293
0.737327
0.73736
0.73736
0.737393
0.737426
0.737459
0.737492
0.737492
0.737526
0.737559
0.737592
0.737625
0.737625
0.737659
0.737692
0.737725
0.737759
0.737759
0.737792
0.737825
0.737859
0.737892
0.737892
0.737925
0.737959
0.737992
0.738026
0.738026
0.738059
0.738093
0.738126
0.738159
0.738159
0.738193
0.738226
0.73826
0.738293
0.738293
0.738327
0.73836
0.738394
0.738428
0.738428
0.738461
0.738495
0.738528
0.738562
0.738562
0.738596
0.738629
0.738663
0.738697
0.738697
0.73873
0.738764
0.738798
0.738831
0.738831
0.738865
0.738899
0.738933
0.738966
0.738966
0.739
0.739034
0.739068
0.739101
0.739101
0.739135
0.739169
0.739203
0.739237
0.739237
0.739271
0.739305
0.739338
0.739372
0.739372
0.739406
0.73944
0.739474
0.739508
0.739508
0.739542
0.739576
0.73961
0.739644
0.739644
0.739678
0.739712
0.739746
0.73978
0.73978
0.739814
0.739848
0.739882
0.739916
0.739916
0.739951
0.739985
0.740019
0.740053
0.740053
0.740087
0.740121
0.740156
0.74019
0.74019
0.740224
0.740258
0.740292
0.740327
0.740327
0.740361
0.740395
0.740429
0.740464
0.740464
0.740498
0.740532
0.740567
0.740601
0.740601
0.740635
0.74067
0.740704
0.740739
0.740739
0.740773
0.740807
0.740842
0.740876
0.740876
0.740911
0.740945
0.74098
0.741014
0.741014
0.741049
0.741083
0.741118
0.741152
0.741152
0.741187
0.741221
0.741256
0.741291
0.741291
0.741325
0.74136
0.741394
0.741429
0.741429
0.741464
0.741498
0.741533
0.741568
0.741568
0.741602
0.741637
0.741672
0.741707
0.741707
0.741741
0.741776
0.741811
0.741846
0.741846
0.74188
0.741915
0.74195
0.741985
0.741985
0.74202
0.742055
0.742089
0.742124
0.742124
0.742159
0.742194
0.742229
0.742264
0.742264
0.742299
0.742334
0.742369
0.742404
0.742404
0.742439
0.742474
0.742509
0.742544
0.742544
0.742579
0.742614
0.742649
0.742684
0.742684
0.742719
0.742754
0.742789
0.742824
0.742824
0.74286
0.742895
0.74293
0.742965
0.742965
0.743
0.743035
0.743071
0.743106
0.743106
0.743141
0.743176
0.743212
0.743247
0.743247
0.743282
0.743317
0.743353
0.743388
0.743388
0.743423
0.743459
0.743494
0.743529
0.743529
0.743565
0.7436
0.743636
0.743671
0.743671
0.743706
0.743742
0.743777
0.743813
0.743813
0.743848
0.743884