<?xml version="1.0"?>
<VTKFile type="UnstructuredGrid" version="0.1" byte_order="LittleEndian">
<UnstructuredGrid>
<Piece NumberOfPoints="5000" NumberOfCells="4000">
<PointData Scalars="Reaction 0">
<DataArray type="Float32" Name="Reaction 0" format="ascii">
0.584566
0.584566
0.584566
0.584566
0.584566
0.584566
0.584566
0.584566
0.584566
0.584566
0.584566
0.584566
0.584566
0.584567
0.584567
0.584567
0.584567
0.584567
0.584568
0.584568
0.584568
0.584568
0.584569
0.584569
0.584569
0.584569
0.58457
0.58457
0.584571
0.584571
0.584571
0.584572
0.584572
0.584573
0.584573
0.584573
0.584574
0.584574
0.584575
0.584576
0.584576
0.584576
0.584577
0.584578
0.584578
0.584578
0.584579
0.58458
0.584581
0.584581
0.584581
0.584582
0.584583
0.584584
0.584585
0.584585
0.584586
0.584587
0.584587
0.584588
0.584588
0.584589
0.58459
0.584591
0.584592
0.584592
0.584593
0.584594
0.584596
0.584597
0.584597
0.584598
0.584599
0.5846
0.584601
0.584601
0.584602
0.584604
0.584605
0.584606
0.584606
0.584607
0.584609
0.58461
0.584611
0.584611
0.584613
0.584614
0.584616
0.584617
0.584617
0.584618
0.58462
0.584621
0.584623
0.584623
0.584624
0.584626
0.584628
0.584629
0.584629
0.584631
0.584632
0.584634
0.584636
0.584636
0.584637
0.584639
0.584641
0.584642
0.584642
0.584644
0.584646
0.584648
0.58465
0.58465
0.584651
0.584653
0.584655
0.584657
0.584657
0.584659
0.584661
0.584663
0.584665
0.584665
0.584667
0.584669
0.584671
0.584673
0.584673
0.584675
0.584677
0.584679
0.584681
0.584681
0.584684
0.584686
0.584688
0.58469
0.58469
0.584692
0.584695
0.584697
0.584699
0.584699
0.584701
0.584704
0.584706
0.584709
0.584709
0.584711
0.584713
0.584716
0.584718
0.584718
0.584721
0.584723
0.584726
0.584728
0.584728
0.584731
0.584733
0.584736
0.584738
0.584738
0.584741
0.584744
0.584746
0.584749
0.584749
0.584752
0.584755
0.584757
0.58476
0.58476
0.584763
0.584766
0.584768
0.584771
0.584771
0.584774
0.584777
0.58478
0.584783
0.584783
0.584786
0.584789
0.584792
0.584795
0.584795
0.584798
0.584801
0.584804
0.584807
0.584807
0.58481
0.584813
0.584816
0.584819
0.584819
0.584822
0.584825
0.584828
0.584831
0.584831
0.584834
0.584837
0.58484
0.584843
0.584843
0.584846
0.584849
0.584852
0.584855
0.584855
0.584859
0.584862
0.584865
0.584868
0.584868
0.584872
0.584875
0.584878
0.584881
0.584881
0.584885
0.584888
0.584891
0.584895
0.584895
0.584898
0.584902
0.584905
0.584909
0.584909
0.584912
0.584915
0.584919
0.584923
0.584923
0.584926
0.58493
0.584933
0.584937
0.584937
0.58494
0.584944
0.584948
0.584951
0.584951
0.584955
0.584959
0.584963
0.584966
0.584966
0.58497
0.584974
0.584978
0.584981
0.584981
0.584985
0.584989
0.584993
0.584997
0.584997
0.585001
0.585005
0.585009
0.585013
0.585013
0.585017
0.585021
0.585025
0.585029
0.585029
0.585033
0.585037
0.585041
0.585045
0.585045
0.585049
0.585053
0.585058
0.585062
0.585062
0.585066
0.58507
0.585074
0.585079
0.585079
0.585083
0.585087
0.585092
0.585096
0.585096
0.5851
0.585105
0.585109
0.585113
0.585113
0.585118
0.585122
0.585127
0.585131
0.585131
0.585136
0.58514
0.585145
0.585149
0.585149
0.585154
0.585158
0.585163
0.585168
0.585168
0.585172
0.585177
0.585182
0.585186
0.585186
0.585191
0.585196
0.5852
0.585205
0.585205
0.58521
0.585215
0.58522
0.585224
0.585224
0.585229
0.585234
0.585239
0.585244
0.585244
0.585249
0.585254
0.585259
0.585264
0.585264
0.585269
0.585274
0.585279
0.585284
0.585284
0.585289
0.585294
0.585299
0.585304
0.585304
0.585309
0.585314
0.58532
0.585325
0.585325
0.58533
0.585335
0.58534
0.585346
0.585346
0.585351
0.585356
0.585362
0.585367
0.585367
0.585372
0.585378
0.585383
0.585388
0.585388
0.585394
0.585399
0.585404
0.58541
0.58541
0.585415
0.58542
0.585426
0.585431
0.585431
0.585436
0.585441
0.585446
0.585452
0.585452
0.585457
0.585462
0.585467
0.585473
0.585473
0.585478
0.585483
0.585489
0.585494
0.585494
0.5855
0.585505
0.58551
0.585516
0.585516
0.585521
0.585527
0.585532
0.585538
0.585538
0.585543
0.585549
0.585554
0.58556
0.58556
0.585566
0.585571
0.585577
0.585582
0.585582
0.585588
0.585594
0.585599
0.585605
0.585605
0.585611
0.585617
0.585622
0.585628
0.585628
0.585634
0.58564
0.585645
0.585651
0.585651
0.585657
0.585663
0.585669
0.585675
0.585675
0.585681
0.585687
0.585693
0.585699
0.585699
0.585705
0.585711
0.585717
0.585723
0.585723
0.585729
0.585735
0.585741
0.585747
0.585747
0.585753
0.585759
0.585765
0.585771
0.585771
0.585778
0.585784
0.58579
0.585796
0.585796
0.585802
0.585809
0.585815
0.585821
0.585821
0.585828
0.585834
0.58584
0.585847
0.585847
0.585853
0.585859
0.585866
0.585872
0.585872
0.585879
0.585885
0.585892
0.585898
0.585898
0.585905
0.585911
0.585918
0.585924
0.585924
0.585931
0.585937
0.585944
0.58595
0.58595
0.585957
0.585963
0.58597
0.585976
0.585976
0.585983
0.585989
0.585996
0.586002
0.586002
0.586008
0.586015
0.586021
0.586027
0.586027
0.586034
0.58604
0.586046
0.586053
0.586053
0.586059
0.586066
0.586072
0.586079
0.586079
0.586085
0.586092
0.586098
0.586105
0.586105
0.586111
0.586118
0.586124
0.586131
0.586131
0.586137
0.586144
0.586151
0.586157
0.586157
0.586164
0.586171
0.586177
0.586184
0.586184
0.586191
0.586198
0.586204
0.586211
0.586211
0.586218
0.586225
0.586231
0.586238
0.586238
0.586245
0.586252
0.586259
0.586266
0.586266
0.586273
0.58628
0.586287
0.586293
0.586293
0.5863
0.586307
0.586314
0.586321
0.586321
0.586328
0.586335
0.586342
0.58635
0.58635
0.586357
0.586364
0.586371
0.586378
0.586378
0.586385
0.586392
0.586399
0.586407
0.586407
0.586414
0.586421
0.586428
0.586435
0.586435
0.586443
0.58645
0.586457
0.586464
0.586464
0.586472
0.586479
0.586486
0.586493
0.586493
0.586501
0.586508
0.586515
0.586522
0.586522
0.586529
0.586536
0.586543
0.58655
0.58655
0.586557
0.586564
0.586571
0.586578
0.586578
0.586585
0.586592
0.586599
0.586606
0.586606
0.586613
0.58662
0.586627
0.586634
0.586634
0.586642
0.586649
0.586656
0.586663
0.586663
0.58667
0.586677
0.586685
0.586692
0.586692
0.586699
0.586706
0.586714
0.586721
0.586721
0.586728
0.586736
0.586743
0.58675
0.58675
0.586758
0.586765
0.586772
0.58678
0.58678
0.586787
0.586795
0.586802
0.58681
0.58681
0.586817
0.586825
0.586832
0.58684
0.58684
0.586847
0.586855
0.586862
0.58687
0.58687
0.586877
0.586885
0.586892
0.5869
0.5869
0.586908
0.586915
0.586923
0.586931
0.586931
0.586938
0.586946
0.586954
0.586961
0.586961
0.586969
0.586977
0.586984
0.586992
0.586992
0.586999
0.587007
0.587014
0.587021
0.587021
0.587029
0.587036
0.587044
0.587051
0.587051
0.587058
0.587066
0.587073
0.58708
0.58708
0.587088
0.587095
0.587103
0.58711
0.58711
0.587118
0.587125
0.587133
0.58714
0.58714
0.587148
0.587155
0.587163
0.58717
0.58717
0.587178
0.587185
0.587193
0.5872
0.5872
0.587208
0.587216
0.587223
0.587231
0.587231
0.587239
0.587246
0.587254
0.587262
0.587262
0.587269
0.587277
0.587285
0.587292
0.587292
0.5873
0.587308
0.587316
0.587324
0.587324
0.587331
0.587339
0.587347
0.587355
0.587355
0.587363
0.587371
0.587378
0.587386
0.587386
0.587394
0.587402
0.58741
0.587418
0.587418
0.587426
0.587433
0.587441
0.587449
0.587449
0.587457
0.587464
0.587472
0.587479
0.587479
0.587487
0.587495
0.587502
0.58751
0.58751
0.587517
0.587525
0.587532
0.58754
0.58754
0.587547
0.587555
0.587563
0.58757
0.58757
0.587578
0.587586
0.587593
0.587601
0.587601
0.587609
0.587616
0.587624
0.587632
0.587632
0.587639
0.587647
0.587655
0.587663
0.587663
0.58767
0.587678
0.587686
0.587694
0.587694
0.587702
0.587709
0.587717
0.587725
0.587725
0.587733
0.587741
0.587749
0.587756
0.587756
0.587764
0.587772
0.58778
0.587788
0.587788
0.587796
0.587804
0.587812
0.58782
0.58782
0.587828
0.587836
0.587844
0.587852
0.587852
0.58786
0.587867
0.587875
0.587883
0.587883
0.587891
0.587898
0.587906
0.587914
0.587914
0.587921
0.587929
0.587936
0.587944
0.587944
0.587952
0.587959
0.587967
0.587974
0.587974
0.587982
0.58799
0.587997
0.588005
0.588005
0.588013
0.58802
0.588028
0.588036
0.588036
0.588044
0.588051
0.588059
0.588067
0.588067
0.588075
0.588082
0.58809
0.588098
0.588098
0.588106
0.588114
0.588121
0.588129
0.588129
0.588137
0.588145
0.588153
0.588161
0.588161
0.588169
0.588176
0.588184
0.588192
0.588192
0.5882
0.588208
0.588216
0.588224
0.588224
0.588232
0.58824
0.588248
0.588256
0.588256
0.588263
0.588271
0.588279
0.588286
0.588286
0.588294
0.588302
0.588309
0.588317
0.588317
0.588324
0.588332
0.588339
0.588347
0.588347
0.588355
0.588362
0.58837
0.588377
0.588377
0.588385
0.588393
0.5884
0.588408
0.588408
0.588415
0.588423
0.588431
0.588438
0.588438
0.588446
0.588454
0.588462
0.588469
0.588469
0.588477
0.588485
0.588492
0.5885
0.5885
0.588508
0.588516
0.588523
0.588531
0.588531
0.588539
0.588547
0.588555
0.588562
0.588562
0.58857
0.588578
0.588586
0.588594
0.588594
0.588602
0.588609
0.588617
0.588625
0.588625
0.588633
0.58864
0.588648
0.588655
0.588655
0.588663
0.58867
0.588678
0.588685
0.588685
0.588693
0.5887
0.588708
0.588715
0.588715
0.588723
0.58873
0.588737
0.588745
0.588745
0.588752
0.58876
0.588767
0.588775
0.588775
0.588782
0.58879
0.588798
0.588805
0.588805
0.588813
0.58882
0.588828
0.588835
0.588835
0.588843
0.588851
0.588858
0.588866
0.588866
0.588873
0.588881
0.588889
0.588896
0.588896
0.588904
0.588912
0.588919
0.588927
0.588927
0.588935
0.588942
0.58895
0.588958
0.588958
0.588965
0.588973
0.58898
0.588988
0.588988
0.588995
0.589002
0.58901
0.589017
0.589017
0.589024
0.589032
0.589039
0.589046
0.589046
0.589053
0.589061
0.589068
0.589075
0.589075
0.589083
0.58909
0.589097
0.589105
0.589105
0.589112
0.589119
0.589127
0.589134
0.589134
0.589142
0.589149
0.589156
0.589164
0.589164
0.589171
0.589179
0.589186
0.589193
0.589193
0.589201
0.589208
0.589216
0.589223
0.589223
0.589231
0.589238
0.589246
0.589253
0.589253
0.58926
0.589268
0.589275
0.589283
0.589283
0.58929
0.589297
0.589305
0.589312
0.589312
0.589319
0.589326
0.589333
0.58934
0.58934
0.589347
0.589354
0.589362
0.589369
0.589369
0.589376
0.589383
0.58939
0.589397
0.589397
0.589404
0.589411
0.589418
0.589426
0.589426
0.589433
0.58944
0.589447
0.589454
0.589454
0.589461
0.589469
0.589476
0.589483
0.589483
0.58949
0.589497
0.589505
0.589512
0.589512
0.589519
0.589526
0.589533
0.589541
0.589541
0.589548
0.589555
0.589562
0.58957
0.58957
0.589577
0.589584
0.589591
0.589598
0.589598
0.589605
0.589612
0.589619
0.589626
0.589626
0.589633
0.589639
0.589646
0.589653
0.589653
0.58966
0.589667
0.589674
0.589681
0.589681
0.589687
0.589694
0.589701
0.589708
0.589708
0.589715
0.589722
0.589729
0.589736
0.589736
0.589743
0.58975
0.589757
0.589764
0.589764
0.589771
0.589778
0.589784
0.589791
0.589791
0.589798
0.589805
0.589812
0.589819
0.589819
0.589826
0.589833
0.58984
0.589847
0.589847
0.589854
0.589861
0.589868
0.589874
0.589874
0.589881
0.589888
0.589894
0.589901
0.589901
0.589908
0.589914
0.589921
0.589928
0.589928
0.589934
0.589941
0.589947
0.589954
0.589954
0.589961
0.589967
0.589974
0.589981
0.589981
0.589987
0.589994
0.590001
0.590007
0.590007
0.590014
0.590021
0.590027
0.590034
0.590034
0.590041
0.590048
0.590054
0.590061
0.590061
0.590068
0.590074
0.590081
0.590088
0.590088
0.590095
0.590101
0.590108
0.590114
0.590114
0.590121
0.590127
0.590134
0.59014
0.59014
0.590147
0.590153
0.590159
0.590166
0.590166
0.590172
0.590178
0.590185
0.590191
0.590191
0.590198
0.590204
0.59021
0.590217
0.590217
0.590223
0.590229
0.590236
0.590242
0.590242
0.590249
0.590255
0.590261
0.590268
0.590268
0.590274
0.590281
0.590287
0.590294
0.590294
0.5903
0.590307
0.590313
0.590319
0.590319
0.590326
0.590332
0.590339
0.590345
0.590345
0.590351
0.590357
0.590364
0.59037
0.59037
0.590376
0.590382
0.590388
0.590394
0.590394
0.5904
0.590406
0.590413
0.590419
0.590419
0.590425
0.590431
0.590437
0.590443
0.590443
0.590449
0.590455
0.590461
0.590468
0.590468
0.590474
0.59048
0.590486
0.590492
0.590492
0.590498
0.590505
0.590511
0.590517
0.590517
0.590523
0.590529
0.590535
0.590541
0.590541
0.590548
0.590554
0.59056
0.590566
0.590566
0.590572
0.590578
0.590584
0.59059
0.59059
0.590595
0.590601
0.590607
0.590613
0.590613
0.590619
0.590625
0.59063
0.590636
0.590636
0.590642
0.590648
0.590654
0.59066
0.59066
0.590665
0.590671
0.590677
0.590683
0.590683
0.590689
0.590695
0.590701
0.590706
0.590706
0.590712
0.590718
0.590724
0.59073
0.59073
0.590736
0.590742
0.590748
0.590753
0.590753
0.590759
0.590765
0.590771
0.590776
0.590776
0.590782
0.590788
0.590793
0.590799
0.590799
0.590804
0.59081
0.590816
0.590821
0.590821
0.590827
0.590832
0.590838
0.590843
0.590843
0.590849
0.590855
0.59086
0.590866
0.590866
0.590871
0.590877
0.590882
0.590888
0.590888
0.590894
0.590899
0.590905
0.59091
0.59091
0.590916
0.590922
0.590927
0.590933
0.590933
0.590938
0.590944
0.590949
0.590955
0.590955
0.59096
0.590966
0.590971
0.590977
0.590977
0.590982
0.590987
0.590992
0.590998
0.590998
0.591003
0.591008
0.591014
0.591019
0.591019
0.591024
0.59103
0.591035
0.59104
0.59104
0.591045
0.591051
0.591056
0.591061
0.591061
0.591067
0.591072
0.591077
0.591083
0.591083
0.591088
0.591093
0.591099
0.591104
0.591104
0.591109
0.591115
0.59112
0.591125
0.591125
0.59113
0.591135
0.591141
0.591146
0.591146
0.591151
0.591156
0.591161
0.591166
0.591166
0.591171
0.591176
0.591181
0.591186
0.591186
0.591191
0.591196
0.591201
0.591206
0.591206
0.591211
0.591216
0.591221
0.591226
0.591226
0.591231
0.591236
0.591242
0.591247
0.591247
0.591252
0.591257
0.591262
0.591267
0.591267
0.591272
0.591277
0.591282
0.591287
0.591287
0.591292
0.591297
0.591301
0.591306
0.591306
0.591311
0.591316
0.591321
0.591325
0.591325
0.59133
0.591335
0.59134
0.591345
0.591345
0.591349
0.591354
0.591359
0.591364
0.591364
0.591368
0.591373
0.591378
0.591383
0.591383
0.591388
0.591392
0.591397
0.591402
0.591402
0.591407
0.591412
0.591416
0.591421
0.591421
0.591426
0.591431
0.591435
0.59144
0.59144
0.591445
0.591449
0.591454
0.591458
0.591458
0.591463
0.591468
0.591472
0.591477
0.591477
0.591481
0.591486
0.59149
0.591495
0.591495
0.591499
0.591504
0.591508
0.591513
0.591513
0.591517
0.591522
0.591526
0.591531
0.591531
0.591536
0.59154
0.591545
0.591549
0.591549
0.591554
0.591558
0.591563
0.591567
0.591567
0.591572
0.591576
0.59158
0.591585
0.591585
0.591589
0.591594
0.591598
0.591602
0.591602
0.591606
0.591611
0.591615
0.591619
0.591619
0.591624
0.591628
0.591632
0.591636
0.591636
0.591641
0.591645
0.591649
0.591654
0.591654
0.591658
0.591662
0.591667
0.591671
0.591671
0.591675
0.591679
0.591684
0.591688
0.591688
0.591692
0.591696
0.591701
0.591705
0.591705
0.591709
0.591713
0.591717
0.591721
0.591721
0.591725
0.591729
0.591734
0.591738
0.591738
0.591742
0.591746
0.59175
0.591754
0.591754
0.591758
0.591762
0.591766
0.59177
0.59177
0.591774
0.591778
0.591782
0.591786
0.591786
0.59179
0.591794
0.591799
0.591803
0.591803
0.591807
0.591811
0.591815
0.591819
0.591819
0.591823
0.591826
0.59183
0.591834
0.591834
0.591838
0.591842
0.591846
0.59185
0.59185
0.591853
0.591857
0.591861
0.591865
0.591865
0.591869
0.591873
0.591876
0.59188
0.59188
0.591884
0.591888
0.591892
0.591896
0.591896
0.5919
0.591903
0.591907
0.591911
0.591911
0.591915
0.591919
0.591922
0.591926
0.591926
0.59193
0.591934
0.591937
0.591941
0.591941
0.591945
0.591948
0.591952
0.591956
0.591956
0.591959
0.591963
0.591966
0.59197
0.59197
0.591974
0.591977
0.591981
0.591985
0.591985
0.591988
0.591992
0.591995
0.591999
0.591999
0.592003
0.592006
0.59201
0.592014
0.592014
0.592017
0.592021
0.592024
0.592028
0.592028
0.592031
0.592035
0.592038
0.592042
0.592042
0.592045
0.592049
0.592052
0.592056
0.592056
0.592059
0.592062
0.592066
0.592069
0.592069
0.592073
0.592076
0.59208
0.592083
0.592083
0.592086
0.59209
0.592093
0.592097
0.592097
0.5921
0.592104
0.592107
0.59211
0.59211
0.592114
0.592117
0.59212
0.592124
0.592124
0.592127
0.59213
0.592134
0.592137
0.592137
0.59214
0.592143
0.592147
0.59215
0.59215
0.592153
0.592156
0.59216
0.592163
0.592163
0.592166
0.592169
0.592172
0.592176
0.592176
0.592179
0.592182
0.592185
0.592189
0.592189
0.592192
0.592195
0.592198
0.592201
0.592201
0.592205
0.592208
0.592211
0.592214
0.592214
0.592217
0.59222
0.592223
0.592226
0.592226
0.592229
0.592232
0.592236
0.592239
0.592239
0.592242
0.592245
0.592248
0.592251
0.592251
0.592254
0.592257
0.59226
0.592263
0.592263
0.592266
0.592269
0.592272
0.592275
0.592275
0.592278
0.592281
0.592284
0.592287
0.592287
0.59229
0.592293
0.592296
0.592299
0.592299
0.592302
0.592305
0.592308
0.59231
0.59231
0.592313
0.592316
0.592319
0.592322
0.592322
0.592325
0.592328
0.592331
0.592333
0.592333
0.592336
0.592339
0.592342
0.592345
0.592345
0.592348
0.592351
0.592353
0.592356
0.592356
0.592359
0.592362
0.592365
0.592368
0.592368
0.59237
0.592373
0.592376
0.592379
0.592379
0.592381
0.592384
0.592387
0.592389
0.592389
0.592392
0.592395
0.592397
0.5924
0.5924
0.592403
0.592406
0.592408
0.592411
0.592411
0.592414
0.592416
0.592419
0.592422
0.592422
0.592425
0.592427
0.59243
0.592432
0.592432
0.592435
0.592438
0.59244
0.592443
0.592443
0.592446
0.592448
0.592451
0.592453
0.592453
0.592456
0.592458
0.592461
0.592463
0.592463
0.592466
0.592469
0.592471
0.592474
0.592474
0.592476
0.592479
0.592481
0.592484
0.592484
0.592486
0.592489
0.592491
0.592494
0.592494
0.592496
0.592499
0.592501
0.592504
0.592504
0.592506
0.592509
0.592511
0.592514
0.592514
0.592516
0.592518
0.592521
0.592523
0.592523
0.592526
0.592528
0.59253
0.592533
0.592533
0.592535
0.592538
0.59254
0.592542
0.592542
0.592545
0.592547
0.59255
0.592552
0.592552
0.592554
0.592557
0.592559
0.592561
0.592561
0.592564
0.592566
0.592568
0.592571
0.592571
0.592573
0.592575
0.592577
0.59258
0.59258
0.592582
0.592584
0.592586
0.592589
0.592589
0.592591
0.592593
0.592596
0.592598
0.592598
0.5926
0.592602
0.592605
0.592607
0.592607
0.592609
0.592611
0.592613
0.592616
0.592616
0.592618
0.59262
0.592622
0.592624
0.592624
0.592627
0.592629
0.592631
0.592633
0.592633
0.592635
0.592637
0.592639
0.592642
0.592642
0.592644
0.592646
0.592648
0.59265
0.59265
0.592652
0.592654
0.592657
0.592659
0.592659
0.592661
0.592663
0.592665
0.592667
0.592667
0.592669
0.592671
0.592673
0.592675
0.592675
0.592677
0.592679
0.592681
0.592683
0.592683
0.592685
0.592687
0.592689
0.592691
0.592691
0.592693
0.592695
0.592697
0.5927
0.5927
0.592702
0.592704
0.592706
0.592708
0.592708
0.59271
0.592711
0.592713
0.592715
0.592715
0.592717
0.592719
0.592721
0.592723
0.592723
0.592725
0.592727
0.592729
0.592731
0.592731
0.592733
0.592735
0.592737
0.592738
0.592738
0.59274
0.592742
0.592744
0.592746
0.592746
0.592748
0.59275
0.592752
0.592754
0.592754
0.592756
0.592757
0.592759
0.592761
0.592761
0.592763
0.592765
0.592767
0.592768
0.592768
0.59277
0.592772
0.592774
0.592776
0.592776
0.592778
0.592779
0.592781
0.592783
0.592783
0.592785
0.592787
0.592788
0.59279
0.59279
0.592792
0.592794
0.592796
0.592797
0.592797
0.592799
0.592801
0.592803
0.592804
0.592804
0.592806
0.592808
0.59281
0.592811
0.592811
0.592813
0.592815
0.592816
0.592818
0.592818
0.59282
0.592822
0.592823
0.592825
0.592825
0.592827
0.592828
0.59283
0.592832
0.592832
0.592833
0.592835
0.592837
0.592838
0.592838
0.59284
0.592842
0.592843
0.592845
0.592845
0.592847
0.592848
0.59285
0.592852
0.592852
0.592853
0.592855
0.592856
0.592858
0.592858
0.59286
0.592861
0.592863
0.592865
0.592865
0.592866
0.592868
0.592869
0.592871
0.592871
0.592873
0.592874
0.592876
0.592877
0.592877
0.592879
0.592881
0.592882
0.592884
0.592884
0.592885
0.592887
0.592888
0.59289
0.59289
0.592891
0.592893
0.592894
0.592896
0.592896
0.592898
0.592899
0.592901
0.592902
0.592902
0.592904
0.592905
0.592907
0.592908
0.592908
0.59291
0.592911
0.592913
0.592914
0.592914
0.592916
0.592917
0.592919
0.59292
0.59292
0.592922
0.592923
0.592925
0.592926
0.592926
0.592927
0.592929
0.59293
0.592932
0.592932
0.592933
0.592935
0.592936
0.592938
0.592938
0.592939
0.592941
0.592942
0.592943
0.592943
0.592945
0.592946
0.592948
0.592949
0.592949
0.59295
0.592952
0.592953
0.592955
0.592955
0.592956
0.592957
0.592959
0.59296
0.59296
0.592962
0.592963
0.592964
0.592966
0.592966
0.592967
0.592969
0.59297
0.592971
0.592971
0.592973
0.592974
0.592975
0.592977
0.592977
0.592978
0.592979
0.592981
0.592982
0.592982
0.592983
0.592985
0.592986
0.592987
0.592987
0.592989
0.59299
0.592991
0.592993
0.592993
0.592994
0.592995
0.592997
0.592998
0.592998
0.592999
0.593001
0.593002
0.593003
0.593003
0.593005
0.593006
0.593007
0.593008
0.593008
0.59301
0.593011
0.593012
0.593014
0.593014
0.593015
0.593016
0.593017
0.593019
0.593019
0.59302
0.593021
0.593022
0.593024
0.593024
0.593025
0.593026
0.593027
0.593029
0.593029
0.59303
0.593031
0.593032
0.593034
0.593034
0.593035
0.593036
0.593037
0.593039
0.593039
0.59304
0.593041
0.593042
0.593043
0.593043
0.593045
0.593046
0.593047
0.593048
0.593048
0.59305
0.593051
0.593052
0.593053
0.593053
0.593054
0.593056
0.593057
0.593058
0.593058
0.593059
0.59306
0.593062
0.593063
0.593063
0.593064
0.593065
0.593066
0.593067
0.593067
0.593069
0.59307
0.593071
0.593072
0.593072
0.593073
0.593074
0.593076
0.593077
0.593077
0.593078
0.593079
0.59308
0.593081
0.593081
0.593083
0.593084
0.593085
0.593086
0.593086
0.593087
0.593088
0.593089
0.593091
0.593091
0.593092
0.593093
0.593094
0.593095
0.593095
0.593096
0.593097
0.593098
0.5931
0.5931
0.593101
0.593102
0.593103
0.593104
0.593104
0.593105
0.593106
0.593107
0.593108
0.593108
0.59311
0.593111
0.593112
0.593113
0.593113
0.593114
0.593115
0.593116
0.593117
0.593117
0.593118
0.593119
0.59312
0.593122
0.593122
0.593123
0.593124
0.593125
0.593126
0.593126
0.593127
0.593128
0.593129
0.59313
0.59313
0.593131
0.593132
0.593133
0.593134
0.593134
0.593135
0.593137
0.593138
0.593139
0.593139
0.59314
0.593141
0.593142
0.593143
0.593143
0.593144
0.593145
0.593146
0.593147
0.593147
0.593148
0.593149
0.59315
0.593151
0.593151
0.593152
0.593153
0.593154
0.593155
0.593155
0.593156
0.593157
0.593159
0.59316
0.59316
0.593161
0.593162
0.593163
0.593164
0.593164
0.593165
0.593166
0.593167
0.593168
0.593168
0.593169
0.59317
0.593171
0.593172
0.593172
0.593173
0.593174
0.593175
0.593176
0.593176
0.593177
0.593178
0.593179
0.59318
0.59318
0.593181
0.593182
0.593183
0.593184
0.593184
0.593185
0.593186
0.593187
0.593188
0.593188
0.593189
0.59319
0.593191
0.593192
0.593192
0.593193
0.593194
0.593195
0.593196
0.593196
0.593197
0.593198
0.593199
0.5932
0.5932
0.593201
0.593202
0.593203
0.593204
0.593204
0.593205
0.593206
0.593207
0.593208
0.593208
0.593209
0.59321
0.593211
0.593212
0.593212
0.593213
0.593214
0.593214
0.593215
0.593215
0.593216
0.593217
0.593218
0.593219
0.593219
0.59322
0.593221
0.593222
0.593223
0.593223
0.593224
0.593225
0.593226
0.593227
0.593227
0.593228
0.593229
0.59323
0.593231
0.593231
0.593232
0.593233
0.593234
0.593235
0.593235
0.593236
0.593237
0.593238
0.593239
0.593239
0.59324
0.59324
0.593241
0.593242
0.593242
0.593243
0.593244
0.593245
0.593246
0.593246
0.593247
0.593248
0.593249
0.59325
0.59325
0.593251
0.593252
0.593253
0.593254
0.593254
0.593255
0.593256
0.593257
0.593258
0.593258
0.593258
0.593259
0.59326
0.593261
0.593261
0.593262
0.593263
0.593264
0.593265
0.593265
0.593266
0.593267
0.593268
0.593269
0.593269
0.59327
0.593271
0.593272
0.593273
0.593273
0.593273
0.593274
0.593275
0.593276
0.593276
0.593277
0.593278
0.593279
0.59328
0.59328
0.593281
0.593282
0.593283
0.593284
0.593284
0.593285
0.593286
0.593287
0.593287
0.593287
0.593288
0.593289
0.59329
0.593291
0.593291
0.593292
0.593293
0.593294
0.593295
0.593295
0.593296
0.593297
0.593298
0.593299
0.593299
0.5933
0.593301
0.593301
0.593302
0.593302
0.593303
0.593304
0.593305
0.593306
0.593306
0.593307
0.593308
0.593309
0.59331
0.59331
0.593311
0.593312
0.593313
0.593314
0.593314
0.593314
0.593315
0.593316
0.593317
0.593317
0.593318
0.593319
0.59332
0.593321
0.593321
0.593322
0.593323
0.593324
0.593325
0.593325
0.593326
0.593327
0.593327
0.593328
0.593328
0.593329
0.59333
0.593331
0.593332
0.593332
0.593333
0.593334
0.593335
0.593336
0.593336
0.593337
0.593338
0.593339
0.59334
0.59334
0.593341
0.593341
0.593342
0.593343
0.593343
0.593344
0.593345
0.593346
0.593347
0.593347
0.593348
0.593349
0.59335
0.593351
0.593351
0.593352
0.593353
0.593354
0.593355
0.593355
0.593355
0.593356
0.593357
0.593358
0.593358
0.593359
0.59336
0.593361
0.593362
0.593362
0.593363
0.593364
0.593365
0.593366
0.593366
0.593367
0.593368
0.593369
0.59337
0.59337
0.59337
0.593371
0.593372
0.593373
0.593373
0.593374
0.593375
0.593376
0.593377
0.593377
0.593378
0.593379
0.59338
0.593381
0.593381
0.593382
0.593383
0.593384
0.593385
0.593385
0.593386
0.593387
0.593387
0.593388
0.593388
0.593389
0.59339
0.593391
0.593392
0.593392
0.593393
0.593394
0.593395
0.593396
0.593396
0.593397
0.593398
0.593399
0.5934
0.5934
0.593401
0.593402
0.593403
0.593404
0.593404
0.593405
0.593406
0.593407
0.593408
0.593408
0.593409
0.593409
0.59341
0.593411
0.593411
0.593412
0.593413
0.593414
0.593415
0.593415
0.593416
0.593417
0.593418
0.593419
0.593419
0.59342
0.593421
0.593422
0.593423
0.593423
0.593424
0.593425
0.593426
0.593427
0.593427
0.593428
0.593429
0.59343
0.593431
0.593431
0.593432
0.593433
0.593434
0.593435
0.593435
0.593436
0.593437
0.593438
0.593439
0.593439
0.59344
0.593441
0.593442
0.593443
0.593443
0.593444
0.593445
0.593446
0.593447
0.593447
0.593448
0.593449
0.59345
0.593451
0.593451
0.593452
0.593453
0.593454
0.593455
0.593455
0.593456
0.593457
0.593458
0.593459
0.593459
0.59346
0.593461
0.593462
0.593463
0.593463
0.593464
0.593465
0.593466
0.593467
0.593467
0.593468
0.593469
0.59347
0.593471
0.593471
0.593472
0.593473
0.593474
0.593475
0.593475
0.593476
0.593477
0.593478
0.593479
0.593479
0.59348
0.593481
0.593482
0.593483
0.593483
0.593484
0.593485
0.593486
0.593487
0.593487
0.593488
0.593489
0.59349
0.593491
0.593491
0.593492
0.593493
0.593494
0.593495
0.593495
0.593496
0.593497
0.593498
0.5935
0.5935
0.593501
0.593502
0.593503
0.593504
0.593504
0.593505
0.593506
0.593507
0.593508
0.593508
0.593509
0.59351
0.593511
0.593512
0.593512
0.593513
0.593514
0.593515
0.593516
0.593516
0.593517
0.593519
0.59352
0.593521
0.593521
0.593522
0.593523
0.593524
0.593525
0.593525
0.593526
0.593527
0.593528
0.593529
0.593529
0.59353
0.593531
0.593532
0.593534
0.593534
0.593535
0.593536
0.593537
0.593538
0.593538
0.593539
0.59354
0.593541
0.593542
0.593542
0.593543
0.593544
0.593546
0.593547
0.593547
0.593548
0.593549
0.59355
0.593551
0.593551
0.593552
0.593553
0.593554
0.593556
0.593556
0.593557
0.593558
0.593559
0.59356
0.59356
0.593561
0.593562
0.593563
0.593564
0.593564
0.593566
0.593567
0.593568
0.593569
0.593569
0.59357
0.593571
0.593572
0.593573
0.593573
0.593575
0.593576
0.593577
0.593578
0.593578
0.593579
0.59358
0.593581
0.593583
0.593583
0.593584
0.593585
0.593586
0.593587
0.593587
0.593588
0.593589
0.593591
0.593592
0.593592
0.593593
0.593594
0.593595
0.593596
0.593596
0.593598
0.593599
0.5936
0.593601
0.593601
0.593602
0.593603
0.593605
0.593606
0.593606
0.593607
0.593608
0.593609
0.593611
0.593611
0.593612
0.593613
0.593614
0.593615
0.593615
0.593616
0.593618
0.593619
0.59362
0.59362
0.593621
0.593622
0.593624
0.593625
0.593625
0.593626
0.593627
0.593628
0.59363
0.59363
0.593631
0.593632
0.593633
0.593634
0.593634
0.593636
0.593637
0.593638
0.593639
0.593639
0.593641
0.593642
0.593643
0.593644
0.593644
0.593645
0.593647
0.593648
0.593649
0.593649
0.59365
0.593652
0.593653
0.593654
0.593654
0.593655
0.593657
0.593658
0.593659
0.593659
0.59366
0.593662
0.593663
0.593664
0.593664
0.593665
0.593667
0.593668
0.593669
0.593669
0.59367
0.593672
0.593673
0.593674
0.593674
0.593675
0.593677
0.593678
0.593679
0.593679
0.593681
0.593682
0.593683
0.593684
0.593684
0.593686
0.593687
0.593688
0.59369
0.59369
0.593691
0.593692
0.593693
0.593695
0.593695
0.593696
0.593697
0.593699
0.5937
0.5937
0.593701
0.593703
0.593704
0.593705
0.593705
0.593706
0.593708
0.593709
0.59371
0.59371
0.593712
0.593713
0.593714
0.593716
0.593716
0.593717
0.593718
0.59372
0.593721
0.593721
0.593722
0.593724
0.593725
0.593726
0.593726
0.593728
0.593729
0.59373
0.593732
0.593732
0.593733
0.593734
0.593736
0.593737
0.593737
0.593739
0.59374
0.593741
0.593743
0.593743
0.593744
0.593745
0.593747
0.593748
0.593748
0.59375
0.593751
0.593752
0.593754
0.593754
0.593755
0.593756
0.593758
0.593759
0.593759
0.593761
0.593762
0.593763
0.593765
0.593765
0.593766
0.593768
0.593769
0.59377
0.59377
0.593772
0.593773
0.593775
0.593776
0.593776
0.593777
0.593779
0.59378
0.593782
0.593782
0.593783
0.593785
0.593786
0.593787
0.593787
0.593789
0.59379
0.593792
0.593793
0.593793
0.593795
0.593796
0.593797
0.593799
0.593799
0.5938
0.593802
0.593803
0.593805
0.593805
0.593806
0.593808
0.593809
0.593811
0.593811
0.593812
0.593813
0.593815
0.593816
0.593816
0.593818
0.593819
0.593821
0.593822
0.593822
0.593824
0.593825
0.593827
0.593828
0.593828
0.59383
0.593831
0.593833
0.593834
0.593834
0.593836
0.593837
0.593839
0.59384
0.59384
0.593842
0.593843
0.593845
0.593846
0.593846
0.593848
0.593849
0.593851
0.593852
0.593852
0.593854
0.593855
0.593857
0.593858
0.593858
0.59386
0.593861
0.593863
0.593865
0.593865
0.593866
0.593868
0.593869
0.593871
0.593871
0.593872
0.593874
0.593875
0.593877
0.593877
0.593879
0.59388
0.593882
0.593883
0.593883
0.593885
0.593886
0.593888
0.593889
0.593889
0.593891
0.593893
0.593894
0.593896
0.593896
0.593897
0.593899
0.593901
0.593902
0.593902
0.593904
0.593905
0.593907
0.593909
0.593909
0.59391
0.593912
0.593913
0.593915
0.593915
0.593917
0.593918
0.59392
0.593921
0.593921
0.593923
0.593925
0.593926
0.593928
0.593928
0.59393
0.593931
0.593933
0.593934
0.593934
0.593936
0.593938
0.593939
0.593941
0.593941
0.593943
0.593944
0.593946
0.593948
0.593948
0.593949
0.593951
0.593953
0.593954
0.593954
0.593956
0.593958
0.593959
0.593961
0.593961
0.593963
0.593964
0.593966
0.593968
0.593968
0.593969
0.593971
0.593973
0.593974
0.593974
0.593976
0.593978
0.59398
0.593981
0.593981
0.593983
0.593985
0.593986
0.593988
0.593988
0.59399
0.593991
0.593993
0.593995
0.593995
0.593997
0.593998
0.594
0.594002
0.594002
0.594004
0.594005
0.594007
0.594009
0.594009
0.594011
0.594012
0.594014
0.594016
0.594016
0.594017
0.594019
0.594021
0.594023
0.594023
0.594025
0.594026
0.594028
0.59403
0.59403
0.594032
0.594033
0.594035
0.594037
0.594037
0.594039
0.59404
0.594042
0.594044
0.594044
0.594046
0.594048
0.594049
0.594051
0.594051
0.594053
0.594055
0.594057
0.594058
0.594058
0.59406
0.594062
0.594064
0.594066
0.594066
0.594068
0.594069
0.594071
0.594073