<?xml version="1.0"?>
<VTKFile type="UnstructuredGrid" version="0.1" byte_order="LittleEndian">
<UnstructuredGrid>
<Piece NumberOfPoints="5000" NumberOfCells="4000">
<PointData Scalars="Reaction 0">
<DataArray type="Float32" Name="Reaction 0" format="ascii">
0.713138
0.713138
0.713138
0.713138
0.713138
0.713138
0.713138
0.713138
0.713138
0.713138
0.713138
0.713138
0.713138
0.713138
0.713138
0.713138
0.713138
0.713138
0.713138
0.713138
0.713138
0.713138
0.713138
0.713139
0.713139
0.713139
0.713139
0.713139
0.713139
0.713139
0.713139
0.713139
0.713139
0.71314
0.71314
0.71314
0.71314
0.71314
0.71314
0.713141
0.713141
0.713141
0.713141
0.713141
0.713141
0.713141
0.713142
0.713142
0.713142
0.713142
0.713142
0.713142
0.713143
0.713143
0.713143
0.713143
0.713143
0.713144
0.713144
0.713144
0.713144
0.713145
0.713145
0.713145
0.713145
0.713145
0.713146
0.713146
0.713146
0.713147
0.713147
0.713147
0.713147
0.713148
0.713148
0.713148
0.713148
0.713149
0.713149
0.71315
0.71315
0.71315
0.71315
0.713151
0.713151
0.713151
0.713152
0.713152
0.713152
0.713153
0.713153
0.713153
0.713154
0.713154
0.713155
0.713155
0.713155
0.713155
0.713156
0.713156
0.713156
0.713157
0.713157
0.713158
0.713158
0.713158
0.713159
0.713159
0.71316
0.71316
0.71316
0.713161
0.713161
0.713162
0.713162
0.713162
0.713163
0.713164
0.713164
0.713165
0.713165
0.713165
0.713166
0.713166
0.713167
0.713167
0.713168
0.713168
0.713169
0.713169
0.713169
0.71317
0.713171
0.713171
0.713172
0.713172
0.713173
0.713173
0.713174
0.713174
0.713174
0.713175
0.713176
0.713176
0.713177
0.713177
0.713178
0.713179
0.713179
0.71318
0.71318
0.713181
0.713181
0.713182
0.713183
0.713183
0.713184
0.713184
0.713185
0.713186
0.713186
0.713187
0.713187
0.713188
0.713189
0.713189
0.71319
0.71319
0.713191
0.713192
0.713192
0.713193
0.713194
0.713194
0.713195
0.713195
0.713196
0.713197
0.713198
0.713199
0.713199
0.713199
0.7132
0.713201
0.713202
0.713202
0.713203
0.713204
0.713205
0.713206
0.713206
0.713206
0.713207
0.713208
0.713209
0.713209
0.71321
0.713211
0.713212
0.713213
0.713213
0.713214
0.713215
0.713216
0.713217
0.713217
0.713218
0.713219
0.71322
0.713221
0.713221
0.713222
0.713223
0.713224
0.713225
0.713225
0.713226
0.713227
0.713228
0.713229
0.713229
0.71323
0.713231
0.713232
0.713233
0.713233
0.713234
0.713235
0.713236
0.713237
0.713237
0.713238
0.713239
0.713241
0.713242
0.713242
0.713243
0.713244
0.713245
0.713246
0.713246
0.713247
0.713248
0.71325
0.713251
0.713251
0.713252
0.713253
0.713254
0.713255
0.713255
0.713257
0.713258
0.713259
0.71326
0.71326
0.713261
0.713263
0.713264
0.713265
0.713265
0.713266
0.713268
0.713269
0.71327
0.71327
0.713271
0.713273
0.713274
0.713275
0.713275
0.713276
0.713278
0.713279
0.71328
0.71328
0.713281
0.713283
0.713284
0.713285
0.713285
0.713287
0.713288
0.713289
0.713291
0.713291
0.713292
0.713293
0.713295
0.713296
0.713296
0.713298
0.713299
0.7133
0.713302
0.713302
0.713303
0.713304
0.713306
0.713307
0.713307
0.713309
0.71331
0.713312
0.713313
0.713313
0.713314
0.713316
0.713317
0.713319
0.713319
0.71332
0.713322
0.713323
0.713325
0.713325
0.713326
0.713328
0.713329
0.713331
0.713331
0.713332
0.713334
0.713335
0.713337
0.713337
0.713338
0.71334
0.713341
0.713343
0.713343
0.713345
0.713346
0.713348
0.713349
0.713349
0.713351
0.713352
0.713354
0.713356
0.713356
0.713357
0.713359
0.71336
0.713362
0.713362
0.713364
0.713365
0.713367
0.713369
0.713369
0.71337
0.713372
0.713374
0.713375
0.713375
0.713377
0.713379
0.71338
0.713382
0.713382
0.713384
0.713385
0.713387
0.713389
0.713389
0.713391
0.713392
0.713394
0.713396
0.713396
0.713398
0.713399
0.713401
0.713403
0.713403
0.713405
0.713406
0.713408
0.71341
0.71341
0.713412
0.713414
0.713415
0.713417
0.713417
0.713419
0.713421
0.713423
0.713425
0.713425
0.713426
0.713428
0.71343
0.713432
0.713432
0.713434
0.713436
0.713438
0.713439
0.713439
0.713441
0.713443
0.713445
0.713447
0.713447
0.713449
0.713451
0.713453
0.713455
0.713455
0.713457
0.713459
0.713461
0.713463
0.713463
0.713465
0.713466
0.713468
0.71347
0.71347
0.713472
0.713474
0.713476
0.713478
0.713478
0.71348
0.713482
0.713484
0.713486
0.713486
0.713489
0.713491
0.713493
0.713495
0.713495
0.713497
0.713499
0.713501
0.713503
0.713503
0.713505
0.713507
0.713509
0.713511
0.713511
0.713513
0.713515
0.713518
0.71352
0.71352
0.713522
0.713524
0.713526
0.713528
0.713528
0.71353
0.713533
0.713535
0.713537
0.713537
0.713539
0.713541
0.713543
0.713546
0.713546
0.713548
0.71355
0.713552
0.713554
0.713554
0.713557
0.713559
0.713561
0.713563
0.713563
0.713566
0.713568
0.71357
0.713572
0.713572
0.713575
0.713577
0.713579
0.713582
0.713582
0.713584
0.713586
0.713588
0.713591
0.713591
0.713593
0.713595
0.713598
0.7136
0.7136
0.713602
0.713605
0.713607
0.713609
0.713609
0.713612
0.713614
0.713617
0.713619
0.713619
0.713621
0.713624
0.713626
0.713629
0.713629
0.713631
0.713633
0.713636
0.713638
0.713638
0.713641
0.713643
0.713646
0.713648
0.713648
0.71365
0.713653
0.713655
0.713658
0.713658
0.71366
0.713663
0.713665
0.713668
0.713668
0.71367
0.713673
0.713675
0.713678
0.713678
0.71368
0.713683
0.713686
0.713688
0.713688
0.713691
0.713693
0.713696
0.713698
0.713698
0.713701
0.713704
0.713706
0.713709
0.713709
0.713711
0.713714
0.713717
0.713719
0.713719
0.713722
0.713724
0.713727
0.71373
0.71373
0.713732
0.713735
0.713738
0.71374
0.71374
0.713743
0.713746
0.713748
0.713751
0.713751
0.713754
0.713756
0.713759
0.713762
0.713762
0.713765
0.713767
0.71377
0.713773
0.713773
0.713776
0.713778
0.713781
0.713784
0.713784
0.713787
0.713789
0.713792
0.713795
0.713795
0.713798
0.7138
0.713803
0.713806
0.713806
0.713809
0.713812
0.713815
0.713817
0.713817
0.71382
0.713823
0.713826
0.713829
0.713829
0.713832
0.713835
0.713837
0.71384
0.71384
0.713843
0.713846
0.713849
0.713852
0.713852
0.713855
0.713858
0.713861
0.713864
0.713864
0.713866
0.713869
0.713872
0.713875
0.713875
0.713878
0.713881
0.713884
0.713887
0.713887
0.71389
0.713893
0.713896
0.713899
0.713899
0.713902
0.713905
0.713908
0.713911
0.713911
0.713914
0.713917
0.71392
0.713923
0.713923
0.713926
0.713929
0.713933
0.713936
0.713936
0.713939
0.713942
0.713945
0.713948
0.713948
0.713951
0.713954
0.713957
0.71396
0.71396
0.713964
0.713967
0.71397
0.713973
0.713973
0.713976
0.713979
0.713982
0.713986
0.713986
0.713989
0.713992
0.713995
0.713998
0.713998
0.714001
0.714005
0.714008
0.714011
0.714011
0.714014
0.714018
0.714021
0.714024
0.714024
0.714027
0.714031
0.714034
0.714037
0.714037
0.71404
0.714044
0.714047
0.71405
0.71405
0.714053
0.714057
0.71406
0.714063
0.714063
0.714067
0.71407
0.714073
0.714077
0.714077
0.71408
0.714083
0.714087
0.71409
0.71409
0.714093
0.714097
0.7141
0.714104
0.714104
0.714107
0.71411
0.714114
0.714117
0.714117
0.714121
0.714124
0.714127
0.714131
0.714131
0.714134
0.714138
0.714141
0.714145
0.714145
0.714148
0.714151
0.714155
0.714158
0.714158
0.714162
0.714165
0.714169
0.714172
0.714172
0.714176
0.714179
0.714183
0.714186
0.714186
0.71419
0.714194
0.714197
0.714201
0.714201
0.714204
0.714208
0.714211
0.714215
0.714215
0.714218
0.714222
0.714226
0.714229
0.714229
0.714233
0.714236
0.71424
0.714244
0.714244
0.714247
0.714251
0.714255
0.714258
0.714258
0.714262
0.714266
0.714269
0.714273
0.714273
0.714277
0.71428
0.714284
0.714288
0.714288
0.714291
0.714295
0.714299
0.714302
0.714302
0.714306
0.71431
0.714314
0.714317
0.714317
0.714321
0.714325
0.714329
0.714332
0.714332
0.714336
0.71434
0.714344
0.714347
0.714347
0.714351
0.714355
0.714359
0.714363
0.714363
0.714366
0.71437
0.714374
0.714378
0.714378
0.714382
0.714386
0.714389
0.714393
0.714393
0.714397
0.714401
0.714405
0.714409
0.714409
0.714413
0.714417
0.714421
0.714424
0.714424
0.714428
0.714432
0.714436
0.71444
0.71444
0.714444
0.714448
0.714452
0.714456
0.714456
0.71446
0.714464
0.714468
0.714472
0.714472
0.714476
0.71448
0.714484
0.714488
0.714488
0.714492
0.714496
0.7145
0.714504
0.714504
0.714508
0.714512
0.714516
0.71452
0.71452
0.714524
0.714528
0.714532
0.714536
0.714536
0.71454
0.714544
0.714548
0.714553
0.714553
0.714557
0.714561
0.714565
0.714569
0.714569
0.714573
0.714577
0.714581
0.714586
0.714586
0.71459
0.714594
0.714598
0.714602
0.714602
0.714606
0.714611
0.714615
0.714619
0.714619
0.714623
0.714627
0.714632
0.714636
0.714636
0.71464
0.714644
0.714648
0.714653
0.714653
0.714657
0.714661
0.714666
0.71467
0.71467
0.714674
0.714678
0.714683
0.714687
0.714687
0.714691
0.714695
0.7147
0.714704
0.714704
0.714708
0.714713
0.714717
0.714721
0.714721
0.714726
0.71473
0.714734
0.714739
0.714739
0.714743
0.714748
0.714752
0.714756
0.714756
0.714761
0.714765
0.71477
0.714774
0.714774
0.714778
0.714783
0.714787
0.714792
0.714792
0.714796
0.714801
0.714805
0.714809
0.714809
0.714814
0.714818
0.714823
0.714827
0.714827
0.714832
0.714836
0.714841
0.714845
0.714845
0.71485
0.714854
0.714859
0.714863
0.714863
0.714868
0.714872
0.714877
0.714882
0.714882
0.714886
0.714891
0.714895
0.7149
0.7149
0.714904
0.714909
0.714914
0.714918
0.714918
0.714923
0.714927
0.714932
0.714937
0.714937
0.714941
0.714946
0.714951
0.714955
0.714955
0.71496
0.714965
0.714969
0.714974
0.714974
0.714979
0.714983
0.714988
0.714993
0.714993
0.714997
0.715002
0.715007
0.715012
0.715012
0.715016
0.715021
0.715026
0.71503
0.71503
0.715035
0.71504
0.715045
0.71505
0.71505
0.715054
0.715059
0.715064
0.715069
0.715069
0.715073
0.715078
0.715083
0.715088
0.715088
0.715093
0.715098
0.715102
0.715107
0.715107
0.715112
0.715117
0.715122
0.715127
0.715127
0.715132
0.715136
0.715141
0.715146
0.715146
0.715151
0.715156
0.715161
0.715166
0.715166
0.715171
0.715176
0.715181
0.715186
0.715186
0.715191
0.715195
0.7152
0.715205
0.715205
0.71521
0.715215
0.71522
0.715225
0.715225
0.71523
0.715235
0.71524
0.715245
0.715245
0.71525
0.715255
0.71526
0.715265
0.715265
0.71527
0.715275
0.715281
0.715286
0.715286
0.715291
0.715296
0.715301
0.715306
0.715306
0.715311
0.715316
0.715321
0.715326
0.715326
0.715331
0.715337
0.715342
0.715347
0.715347
0.715352
0.715357
0.715362
0.715367
0.715367
0.715373
0.715378
0.715383
0.715388
0.715388
0.715393
0.715398
0.715404
0.715409
0.715409
0.715414
0.715419
0.715425
0.71543
0.71543
0.715435
0.71544
0.715445
0.715451
0.715451
0.715456
0.715461
0.715467
0.715472
0.715472
0.715477
0.715482
0.715488
0.715493
0.715493
0.715498
0.715504
0.715509
0.715514
0.715514
0.71552
0.715525
0.71553
0.715536
0.715536
0.715541
0.715546
0.715552
0.715557
0.715557
0.715562
0.715568
0.715573
0.715579
0.715579
0.715584
0.715589
0.715595
0.7156
0.7156
0.715606
0.715611
0.715617
0.715622
0.715622
0.715627
0.715633
0.715638
0.715644
0.715644
0.715649
0.715655
0.71566
0.715666
0.715666
0.715671
0.715677
0.715682
0.715688
0.715688
0.715693
0.715699
0.715704
0.71571
0.71571
0.715716
0.715721
0.715727
0.715732
0.715732
0.715738
0.715743
0.715749
0.715755
0.715755
0.71576
0.715766
0.715771
0.715777
0.715777
0.715783
0.715788
0.715794
0.7158
0.7158
0.715805
0.715811
0.715817
0.715822
0.715822
0.715828
0.715834
0.715839
0.715845
0.715845
0.715851
0.715856
0.715862
0.715868
0.715868
0.715873
0.715879
0.715885
0.715891
0.715891
0.715896
0.715902
0.715908
0.715914
0.715914
0.715919
0.715925
0.715931
0.715937
0.715937
0.715943
0.715948
0.715954
0.71596
0.71596
0.715966
0.715972
0.715977
0.715983
0.715983
0.715989
0.715995
0.716001
0.716007
0.716007
0.716013
0.716018
0.716024
0.71603
0.71603
0.716036
0.716042
0.716048
0.716054
0.716054
0.71606
0.716066
0.716072
0.716077
0.716077
0.716083
0.716089
0.716095
0.716101
0.716101
0.716107
0.716113
0.716119
0.716125
0.716125
0.716131
0.716137
0.716143
0.716149
0.716149
0.716155
0.716161
0.716167
0.716173
0.716173
0.716179
0.716185
0.716191
0.716197
0.716197
0.716204
0.71621
0.716216
0.716222
0.716222
0.716228
0.716234
0.71624
0.716246
0.716246
0.716252
0.716258
0.716264
0.716271
0.716271
0.716277
0.716283
0.716289
0.716295
0.716295
0.716301
0.716307
0.716314
0.71632
0.71632
0.716326
0.716332
0.716338
0.716345
0.716345
0.716351
0.716357
0.716363
0.716369
0.716369
0.716376
0.716382
0.716388
0.716394
0.716394
0.716401
0.716407
0.716413
0.71642
0.71642
0.716426
0.716432
0.716438
0.716445
0.716445
0.716451
0.716457
0.716464
0.71647
0.71647
0.716476
0.716483
0.716489
0.716495
0.716495
0.716502
0.716508
0.716514
0.716521
0.716521
0.716527
0.716533
0.71654
0.716546
0.716546
0.716553
0.716559
0.716566
0.716572
0.716572
0.716578
0.716585
0.716591
0.716598
0.716598
0.716604
0.716611
0.716617
0.716624
0.716624
0.71663
0.716637
0.716643
0.71665
0.71665
0.716656
0.716663
0.716669
0.716676
0.716676
0.716682
0.716689
0.716695
0.716702
0.716702
0.716708
0.716715
0.716721
0.716728
0.716728
0.716734
0.716741
0.716748
0.716754
0.716754
0.716761
0.716767
0.716774
0.716781
0.716781
0.716787
0.716794
0.716801
0.716807
0.716807
0.716814
0.716821
0.716827
0.716834
0.716834
0.716841
0.716847
0.716854
0.716861
0.716861
0.716867
0.716874
0.716881
0.716887
0.716887
0.716894
0.716901
0.716908
0.716914
0.716914
0.716921
0.716928
0.716935
0.716941
0.716941
0.716948
0.716955
0.716962
0.716968
0.716968
0.716975
0.716982
0.716989
0.716996
0.716996
0.717003
0.717009
0.717016
0.717023
0.717023
0.71703
0.717037
0.717044
0.71705
0.71705
0.717057
0.717064
0.717071
0.717078
0.717078
0.717085
0.717092
0.717099
0.717106
0.717106
0.717113
0.717119
0.717126
0.717133
0.717133
0.71714
0.717147
0.717154
0.717161
0.717161
0.717168
0.717175
0.717182
0.717189
0.717189
0.717196
0.717203
0.71721
0.717217
0.717217
0.717224
0.717231
0.717238
0.717245
0.717245
0.717252
0.717259
0.717266
0.717273
0.717273
0.71728
0.717288
0.717295
0.717302
0.717302
0.717309
0.717316
0.717323
0.71733
0.71733
0.717337
0.717344
0.717351
0.717359
0.717359
0.717366
0.717373
0.71738
0.717387
0.717387
0.717394
0.717402
0.717409
0.717416
0.717416
0.717423
0.71743
0.717438
0.717445
0.717445
0.717452
0.717459
0.717466
0.717474
0.717474
0.717481
0.717488
0.717495
0.717503
0.717503
0.71751
0.717517
0.717524
0.717532
0.717532
0.717539
0.717546
0.717554
0.717561
0.717561
0.717568
0.717576
0.717583
0.71759
0.71759
0.717598
0.717605
0.717612
0.71762
0.71762
0.717627
0.717634
0.717642
0.717649
0.717649
0.717657
0.717664
0.717671
0.717679
0.717679
0.717686
0.717694
0.717701
0.717708
0.717708
0.717716
0.717723
0.717731
0.717738
0.717738
0.717746
0.717753
0.717761
0.717768
0.717768
0.717776
0.717783
0.717791
0.717798
0.717798
0.717806
0.717813
0.717821
0.717828
0.717828
0.717836
0.717843
0.717851
0.717858
0.717858
0.717866
0.717873
0.717881
0.717889
0.717889
0.717896
0.717904
0.717911
0.717919
0.717919
0.717927
0.717934
0.717942
0.71795
0.71795
0.717957
0.717965
0.717972
0.71798
0.71798
0.717988
0.717995
0.718003
0.718011
0.718011
0.718018
0.718026
0.718034
0.718042
0.718042
0.718049
0.718057
0.718065
0.718072
0.718072
0.71808
0.718088
0.718096
0.718103
0.718103
0.718111
0.718119
0.718127
0.718135
0.718135
0.718142
0.71815
0.718158
0.718166
0.718166
0.718174
0.718181
0.718189
0.718197
0.718197
0.718205
0.718213
0.718221
0.718228
0.718228
0.718236
0.718244
0.718252
0.71826
0.71826
0.718268
0.718276
0.718284
0.718291
0.718291
0.718299
0.718307
0.718315
0.718323
0.718323
0.718331
0.718339
0.718347
0.718355
0.718355
0.718363
0.718371
0.718379
0.718387
0.718387
0.718395
0.718403
0.718411
0.718419
0.718419
0.718427
0.718435
0.718443
0.718451
0.718451
0.718459
0.718467
0.718475
0.718483
0.718483
0.718491
0.718499
0.718507
0.718515
0.718515
0.718523
0.718532
0.71854
0.718548
0.718548
0.718556
0.718564
0.718572
0.71858
0.71858
0.718588
0.718597
0.718605
0.718613
0.718613
0.718621
0.718629
0.718637
0.718645
0.718645
0.718654
0.718662
0.71867
0.718678
0.718678
0.718686
0.718695
0.718703
0.718711
0.718711
0.718719
0.718728
0.718736
0.718744
0.718744
0.718752
0.718761
0.718769
0.718777
0.718777
0.718786
0.718794
0.718802
0.71881
0.71881
0.718819
0.718827
0.718835
0.718844
0.718844
0.718852
0.71886
0.718869
0.718877
0.718877
0.718885
0.718894
0.718902
0.718911
0.718911
0.718919
0.718927
0.718936
0.718944
0.718944
0.718953
0.718961
0.718969
0.718978
0.718978
0.718986
0.718995
0.719003
0.719012
0.719012
0.71902
0.719029
0.719037
0.719046
0.719046
0.719054
0.719062
0.719071
0.71908
0.71908
0.719088
0.719097
0.719105
0.719114
0.719114
0.719122
0.719131
0.719139
0.719148
0.719148
0.719156
0.719165
0.719173
0.719182
0.719182
0.719191
0.719199
0.719208
0.719216
0.719216
0.719225
0.719234
0.719242
0.719251
0.719251
0.71926
0.719268
0.719277
0.719286
0.719286
0.719294
0.719303
0.719312
0.71932
0.71932
0.719329
0.719338
0.719346
0.719355
0.719355
0.719364
0.719372
0.719381
0.71939
0.71939
0.719399
0.719407
0.719416
0.719425
0.719425
0.719434
0.719442
0.719451
0.71946
0.71946
0.719469
0.719478
0.719486
0.719495
0.719495
0.719504
0.719513
0.719522
0.719531
0.719531
0.719539
0.719548
0.719557
0.719566
0.719566
0.719575
0.719584
0.719593
0.719601
0.719601
0.71961
0.719619
0.719628
0.719637
0.719637
0.719646
0.719655
0.719664
0.719673
0.719673
0.719682
0.719691
0.7197
0.719709
0.719709
0.719718
0.719726
0.719735
0.719744
0.719744
0.719753
0.719762
0.719771
0.71978
0.71978
0.719789
0.719798
0.719807
0.719817
0.719817
0.719826
0.719835
0.719844
0.719853
0.719853
0.719862
0.719871
0.71988
0.719889
0.719889
0.719898
0.719907
0.719916
0.719925
0.719925
0.719935
0.719944
0.719953
0.719962
0.719962
0.719971
0.71998
0.719989
0.719999
0.719999
0.720008
0.720017
0.720026
0.720035
0.720035
0.720045
0.720054
0.720063
0.720072
0.720072
0.720081
0.720091
0.7201
0.720109
0.720109
0.720118
0.720128
0.720137
0.720146
0.720146
0.720155
0.720165
0.720174
0.720183
0.720183
0.720193
0.720202
0.720211
0.72022
0.72022
0.72023
0.720239
0.720248
0.720258
0.720258
0.720267
0.720276
0.720286
0.720295
0.720295
0.720305
0.720314
0.720323
0.720333
0.720333
0.720342
0.720352
0.720361
0.72037
0.72037
0.72038
0.720389
0.720399
0.720408
0.720408
0.720418
0.720427
0.720436
0.720446
0.720446
0.720455
0.720465
0.720474
0.720484
0.720484
0.720493
0.720503
0.720512
0.720522
0.720522
0.720531
0.720541
0.720551
0.72056
0.72056
0.72057
0.720579
0.720589
0.720598
0.720598
0.720608
0.720617
0.720627
0.720637
0.720637
0.720646
0.720656
0.720666
0.720675
0.720675
0.720685
0.720694
0.720704
0.720714
0.720714
0.720723
0.720733
0.720743
0.720752
0.720752
0.720762
0.720772
0.720781
0.720791
0.720791
0.720801
0.720811
0.72082
0.72083
0.72083
0.72084
0.720849
0.720859
0.720869
0.720869
0.720879
0.720888
0.720898
0.720908
0.720908
0.720918
0.720928
0.720937
0.720947
0.720947
0.720957
0.720967
0.720977
0.720986
0.720986
0.720996
0.721006
0.721016
0.721026
0.721026
0.721036
0.721046
0.721055
0.721065
0.721065
0.721075
0.721085
0.721095
0.721105
0.721105
0.721115
0.721125
0.721135
0.721145
0.721145
0.721154
0.721164
0.721174
0.721184
0.721184
0.721194
0.721204
0.721214
0.721224
0.721224
0.721234
0.721244
0.721254
0.721264
0.721264
0.721274
0.721284
0.721294
0.721304
0.721304
0.721314
0.721324
0.721334
0.721344
0.721344
0.721355
0.721365
0.721375
0.721385
0.721385
0.721395
0.721405
0.721415
0.721425
0.721425
0.721435
0.721445
0.721456
0.721466
0.721466
0.721476
0.721486
0.721496
0.721506
0.721506
0.721516
0.721527
0.721537
0.721547
0.721547
0.721557
0.721567
0.721578
0.721588
0.721588
0.721598
0.721608
0.721618
0.721629
0.721629
0.721639
0.721649
0.721659
0.72167
0.72167
0.72168
0.72169
0.721701
0.721711
0.721711
0.721721
0.721731
0.721742
0.721752
0.721752
0.721762
0.721773
0.721783
0.721793
0.721793
0.721804
0.721814
0.721824
0.721835
0.721835
0.721845
0.721856
0.721866
0.721876
0.721876
0.721887
0.721897
0.721908
0.721918
0.721918
0.721928
0.721939
0.721949
0.72196
0.72196
0.72197
0.721981
0.721991
0.722002
0.722002
0.722012
0.722023
0.722033
0.722044
0.722044
0.722054
0.722065
0.722075
0.722086
0.722086
0.722096
0.722107
0.722117
0.722128
0.722128
0.722138
0.722149
0.722159
0.72217
0.72217
0.722181
0.722191
0.722202
0.722212
0.722212
0.722223
0.722234
0.722244
0.722255
0.722255
0.722266
0.722276
0.722287
0.722297
0.722297
0.722308
0.722319
0.722329
0.72234
0.72234
0.722351
0.722361
0.722372
0.722383
0.722383
0.722394
0.722404
0.722415
0.722426
0.722426
0.722437
0.722447
0.722458
0.722469
0.722469
0.72248
0.72249
0.722501
0.722512
0.722512
0.722523
0.722533
0.722544
0.722555
0.722555
0.722566
0.722577
0.722587
0.722598
0.722598
0.722609
0.72262
0.722631
0.722642
0.722642
0.722653
0.722664
0.722674
0.722685
0.722685
0.722696
0.722707
0.722718
0.722729
0.722729
0.72274
0.722751
0.722762
0.722773
0.722773
0.722784
0.722794
0.722805
0.722816
0.722816
0.722827
0.722838
0.722849
0.72286
0.72286
0.722871
0.722882
0.722893
0.722904
0.722904
0.722915
0.722926
0.722937
0.722949
0.722949
0.72296
0.722971
0.722982
0.722993
0.722993
0.723004
0.723015
0.723026
0.723037
0.723037
0.723048
0.723059
0.72307
0.723082
0.723082
0.723093
0.723104
0.723115
0.723126
0.723126
0.723137
0.723148
0.72316
0.723171
0.723171
0.723182
0.723193
0.723204
0.723216
0.723216
0.723227
0.723238
0.723249
0.72326
0.72326
0.723272
0.723283
0.723294
0.723305
0.723305
0.723317
0.723328
0.723339
0.72335
0.72335
0.723362
0.723373
0.723384
0.723396
0.723396
0.723407
0.723418
0.72343
0.723441
0.723441
0.723452
0.723464
0.723475
0.723486
0.723486
0.723498
0.723509
0.72352
0.723532
0.723532
0.723543
0.723555
0.723566
0.723577
0.723577
0.723589
0.7236
0.723612
0.723623
0.723623
0.723635
0.723646
0.723657
0.723669
0.723669
0.72368
0.723692
0.723703
0.723715
0.723715
0.723726
0.723738
0.723749
0.723761
0.723761
0.723772
0.723784
0.723795
0.723807
0.723807
0.723819
0.72383
0.723842
0.723853
0.723853
0.723865
0.723876
0.723888
0.7239
0.7239
0.723911
0.723923
0.723934
0.723946
0.723946
0.723958
0.723969
0.723981
0.723993
0.723993
0.724004
0.724016
0.724028
0.724039
0.724039
0.724051
0.724063
0.724074
0.724086
0.724086
0.724098
0.724109
0.724121
0.724133
0.724133
0.724145
0.724156
0.724168
0.72418
0.72418
0.724192
0.724203
0.724215
0.724227
0.724227
0.724239
0.72425
0.724262
0.724274
0.724274
0.724286
0.724298
0.72431
0.724321
0.724321
0.724333
0.724345
0.724357
0.724369
0.724369
0.724381
0.724393
0.724404
0.724416
0.724416
0.724428
0.72444
0.724452
0.724464
0.724464
0.724476
0.724488
0.7245
0.724512
0.724512
0.724524
0.724536
0.724547
0.724559
0.724559
0.724571
0.724583
0.724595
0.724607
0.724607
0.724619
0.724631
0.724643
0.724655
0.724655
0.724667
0.724679
0.724691
0.724704
0.724704
0.724716
0.724728
0.72474
0.724752
0.724752
0.724764
0.724776
0.724788
0.7248
0.7248
0.724812
0.724824
0.724836
0.724849
0.724849
0.724861
0.724873
0.724885
0.724897
0.724897
0.724909
0.724921
0.724934
0.724946
0.724946
0.724958
0.72497
0.724982
0.724995
0.724995
0.725007
0.725019
0.725031
0.725044
0.725044
0.725056
0.725068
0.72508
0.725093
0.725093
0.725105
0.725117
0.725129
0.725142
0.725142
0.725154
0.725166
0.725178
0.725191
0.725191
0.725203
0.725215
0.725228
0.72524
0.72524
0.725252
0.725265
0.725277
0.72529
0.72529
0.725302
0.725314
0.725327
0.725339
0.725339
0.725351
0.725364
0.725376
0.725389
0.725389
0.725401
0.725414
0.725426
0.725438
0.725438
0.725451
0.725463
0.725476
0.725488
0.725488
0.725501
0.725513
0.725526
0.725538
0.725538
0.725551
0.725563
0.725576
0.725588
0.725588
0.725601
0.725613
0.725626
0.725638
0.725638
0.725651
0.725664
0.725676
0.725689
0.725689
0.725701
0.725714
0.725727
0.725739
0.725739
0.725752
0.725764
0.725777
0.72579
0.72579
0.725802
0.725815
0.725828
0.72584
0.72584
0.725853
0.725866
0.725878
0.725891
0.725891
0.725904
0.725916
0.725929
0.725942
0.725942
0.725954
0.725967
0.72598
0.725993
0.725993
0.726005
0.726018
0.726031
0.726044
0.726044
0.726056
0.726069
0.726082
0.726095
0.726095
0.726108
0.72612
0.726133
0.726146
0.726146
0.726159
0.726172
0.726185
0.726197
0.726197
0.72621
0.726223
0.726236
0.726249
0.726249
0.726262
0.726275
0.726288
0.7263
0.7263
0.726313
0.726326
0.726339
0.726352
0.726352
0.726365
0.726378
0.726391
0.726404
0.726404
0.726417
0.72643
0.726443
0.726456
0.726456
0.726469
0.726482
0.726495
0.726508
0.726508
0.726521
0.726534
0.726547
0.72656
0.72656
0.726573
0.726586
0.726599
0.726612
0.726612
0.726625
0.726638
0.726651
0.726664
0.726664
0.726677
0.726691
0.726704
0.726717
0.726717
0.72673
0.726743
0.726756
0.726769
0.726769
0.726783
0.726796
0.726809
0.726822
0.726822
0.726835
0.726848
0.726862
0.726875
0.726875
0.726888
0.726901
0.726914
0.726928
0.726928
0.726941
0.726954
0.726967
0.726981
0.726981
0.726994
0.727007
0.72702
0.727034
0.727034
0.727047
0.72706
0.727074
0.727087
0.727087
0.7271
0.727113
0.727127
0.72714
0.72714
0.727154
0.727167
0.72718
0.727194
0.727194
0.727207
0.72722
0.727234
0.727247
0.727247
0.72726
0.727274
0.727287
0.727301
0.727301
0.727314
0.727328
0.727341
0.727354
0.727354
0.727368
0.727381
0.727395
0.727408
0.727408
0.727422
0.727435
0.727449
0.727462
0.727462
0.727476
0.727489
0.727503
0.727516
0.727516
0.72753
0.727543
0.727557
0.72757
0.72757
0.727584
0.727598
0.727611
0.727625
0.727625
0.727638
0.727652
0.727666
0.727679
0.727679
0.727693
0.727706
0.72772
0.727734
0.727734
0.727747
0.727761
0.727775
0.727788
0.727788
0.727802
0.727816
0.727829
0.727843
0.727843
0.727857
0.72787
0.727884
0.727898
0.727898
0.727911
0.727925
0.727939
0.727953
0.727953
0.727966
0.72798
0.727994
0.728008
0.728008
0.728021
0.728035
0.728049
0.728063
0.728063
0.728077
0.72809
0.728104
0.728118
0.728118
0.728132
0.728146
0.72816
0.728173
0.728173
0.728187
0.728201
0.728215
0.728229
0.728229
0.728243
0.728257
0.728271
0.728285
0.728285
0.728298
0.728312
0.728326
0.72834
0.72834
0.728354
0.728368
0.728382
0.728396
0.728396
0.72841
0.728424
0.728438
0.728452
0.728452
0.728466
0.72848
0.728494
0.728508
0.728508
0.728522
0.728536
0.72855
0.728564
0.728564
0.728578
0.728592
0.728606
0.72862
0.72862
0.728634
0.728649
0.728663
0.728677
0.728677
0.728691
0.728705
0.728719
0.728733
0.728733
0.728747
0.728761
0.728776
0.72879
0.72879
0.728804
0.728818
0.728832
0.728846
0.728846
0.728861
0.728875
0.728889
0.728903
0.728903
0.728917
0.728932
0.728946
0.72896
0.72896
0.728974
0.728989
0.729003
0.729017
0.729017
0.729031
0.729046
0.72906
0.729074
0.729074
0.729089
0.729103
0.729117
0.729132
0.729132
0.729146
0.72916
0.729175
0.729189
0.729189
0.729203
0.729218
0.729232
0.729246
0.729246
0.729261
0.729275
0.72929
0.729304
0.729304
0.729318
0.729333
0.729347
0.729362
0.729362
0.729376
0.729391
0.729405
0.729419
0.729419
0.729434
0.729448
0.729463
0.729477
0.729477
0.729492
0.729506
0.729521
0.729535
0.729535
0.72955
0.729564
0.729579
0.729593
0.729593
0.729608
0.729623
0.729637
0.729652
0.729652
0.729666
0.729681
0.729695
0.72971
0.72971
0.729725
0.729739
0.729754
0.729769
0.729769
0.729783
0.729798
0.729812
0.729827
0.729827
0.729842
0.729856
0.729871
0.729886
0.729886
0.7299
0.729915
0.72993
0.729945
0.729945
0.729959
0.729974
0.729989
0.730003
0.730003
0.730018
0.730033
0.730048
0.730062
0.730062
0.730077
0.730092
0.730107
0.730122
0.730122
0.730136
0.730151
0.730166
0.730181
0.730181
0.730196
0.73021
0.730225
0.73024
0.73024
0.730255
0.73027
0.730285
0.7303
0.7303
0.730315
0.730329
0.730344
0.730359
0.730359
0.730374
0.730389
0.730404
0.730419
0.730419
0.730434
0.730449
0.730464
0.730479
0.730479
0.730494
0.730509
0.730524
0.730539
0.730539
0.730554
0.730569
0.730584
0.730599
0.730599
0.730614
0.730629
0.730644
0.730659
0.730659
0.730674
0.730689
0.730704
0.730719
0.730719
0.730734
0.730749
0.730764
0.730779
0.730779
0.730794
0.73081
0.730825
0.73084
0.73084
0.730855
0.73087
0.730885
0.7309
0.7309
0.730916
0.730931
0.730946
0.730961
0.730961
0.730976
0.730991
0.731007
0.731022
0.731022
0.731037
0.731052
0.731068
0.731083
0.731083
0.731098
0.731113
0.731129
0.731144
0.731144
0.731159
0.731174
0.73119
0.731205
0.731205
0.73122
0.731236
0.731251
0.731266
0.731266
0.731282
0.731297
0.731312
0.731328
0.731328
0.731343
0.731358
0.731374
0.731389
0.731389
0.731404
0.73142
0.731435
0.731451
0.731451
0.731466
0.731481
0.731497
0.731512
0.731512
0.731528
0.731543
0.731559
0.731574
0.731574
0.73159
0.731605
0.731621
0.731636
0.731636
0.731652
0.731667
0.731683
0.731698
0.731698
0.731714
0.731729
0.731745
0.73176
0.73176
0.731776
0.731791
0.731807
0.731823
0.731823
0.731838
0.731854
0.731869
0.731885
0.731885
0.731901
0.731916
0.731932
0.731947
0.731947
0.731963
0.731979
0.731994
0.73201
0.73201
0.732026
0.732041
0.732057
0.732073
0.732073
0.732088
0.732104
0.73212
0.732136
0.732136
0.732151
0.732167
0.732183
0.732198
0.732198
0.732214
0.73223
0.732246
0.732262
0.732262
0.732277
0.732293
0.732309
0.732325
0.732325
0.732341
0.732356
0.732372
0.732388
0.732388
0.732404
0.73242
0.732436
0.732451
0.732451
0.732467
0.732483
0.732499
0.732515
0.732515
0.732531
0.732547
0.732563
0.732579
0.732579
0.732594
0.73261
0.732626
0.732642
0.732642
0.732658
0.732674
0.73269
0.732706
0.732706
0.732722
0.732738
0.732754
0.73277
0.73277
0.732786
0.732802
0.732818
0.732834
0.732834
0.73285
0.732866
0.732882
0.732898
0.732898
0.732914
0.732931
0.732947
0.732963
0.732963
0.732979
0.732995
0.733011
0.733027
0.733027
0.733043
0.733059
0.733075
0.733092
0.733092
0.733108
0.733124
0.73314
0.733156
0.733156
0.733172
0.733189
0.733205
0.733221
0.733221
0.733237
0.733253
0.73327
0.733286
0.733286
0.733302
0.733318
0.733335
0.733351
0.733351
0.733367
0.733383
0.7334
0.733416
0.733416
0.733432
0.733449
0.733465
0.733481
0.733481
0.733498
0.733514
0.73353
0.733547
0.733547
0.733563
0.733579
0.733596
0.733612
0.733612
0.733628
0.733645
0.733661
0.733678
0.733678
0.733694
0.73371
0.733727
0.733743
0.733743
0.73376
0.733776
0.733793
0.733809
0.733809
0.733826
0.733842
0.733858
0.733875
0.733875
0.733891
0.733908
0.733924
0.733941
0.733941
0.733958
0.733974
0.733991
0.734007
0.734007
0.734024
0.73404
0.734057
0.734073
0.734073
0.73409
0.734107
0.734123
0.73414
0.73414
0.734156
0.734173
0.73419
0.734206
0.734206
0.734223
0.73424
0.734256
0.734273
0.734273
0.73429
0.734306
0.734323
0.73434
0.73434
0.734356
0.734373
0.73439
0.734406
0.734406
0.734423
0.73444
0.734457
0.734473
0.734473
0.73449
0.734507
0.734524
0.73454
0.73454
0.734557
0.734574
0.734591
0.734608
0.734608
0.734624
0.734641
0.734658
0.734675
0.734675
0.734692
0.734709
0.734725
0.734742
0.734742
0.734759
0.734776
0.734793
0.73481
0.73481
0.734827
0.734844
0.734861
0.734877
0.734877
0.734894
0.734911
0.734928
0.734945
0.734945
0.734962
0.734979
0.734996
0.735013
0.735013
0.73503
0.735047
0.735064
0.735081
0.735081
0.735098