<?xml version="1.0"?>
<VTKFile type="UnstructuredGrid" version="0.1" byte_order="LittleEndian">
<UnstructuredGrid>
<Piece NumberOfPoints="5000" NumberOfCells="4000">
<PointData Scalars="Reaction 0">
<DataArray type="Float32" Name="Reaction 0" format="ascii">
0.669646
0.669646
0.669646
0.669646
0.669646
0.669646
0.669646
0.669646
0.669646
0.669646
0.669646
0.669646
0.669646
0.669646
0.669646
0.669646
0.669646
0.669646
0.669646
0.669646
0.669646
0.669646
0.669646
0.669647
0.669647
0.669647
0.669647
0.669647
0.669647
0.669647
0.669647
0.669647
0.669647
0.669647
0.669648
0.669648
0.669648
0.669648
0.669648
0.669648
0.669648
0.669648
0.669648
0.669649
0.669649
0.669649
0.669649
0.669649
0.669649
0.669649
0.669649
0.66965
0.66965
0.66965
0.66965
0.66965
0.66965
0.669651
0.669651
0.669651
0.669651
0.669651
0.669652
0.669652
0.669652
0.669652
0.669652
0.669653
0.669653
0.669653
0.669653
0.669653
0.669654
0.669654
0.669654
0.669654
0.669654
0.669655
0.669655
0.669655
0.669655
0.669656
0.669656
0.669656
0.669657
0.669657
0.669657
0.669657
0.669658
0.669658
0.669658
0.669658
0.669659
0.669659
0.669659
0.669659
0.66966
0.66966
0.66966
0.669661
0.669661
0.669661
0.669661
0.669662
0.669662
0.669662
0.669663
0.669663
0.669663
0.669664
0.669664
0.669664
0.669665
0.669665
0.669666
0.669666
0.669666
0.669666
0.669667
0.669667
0.669667
0.669668
0.669668
0.669669
0.669669
0.669669
0.66967
0.66967
0.669671
0.669671
0.669671
0.669672
0.669672
0.669673
0.669673
0.669673
0.669674
0.669674
0.669675
0.669675
0.669675
0.669676
0.669676
0.669677
0.669677
0.669677
0.669678
0.669678
0.669679
0.669679
0.669679
0.66968
0.669681
0.669681
0.669682
0.669682
0.669682
0.669683
0.669684
0.669684
0.669684
0.669685
0.669685
0.669686
0.669687
0.669687
0.669687
0.669688
0.669688
0.669689
0.669689
0.66969
0.66969
0.669691
0.669692
0.669692
0.669692
0.669693
0.669694
0.669694
0.669694
0.669695
0.669696
0.669696
0.669697
0.669697
0.669698
0.669698
0.669699
0.6697
0.6697
0.669701
0.669701
0.669702
0.669703
0.669703
0.669703
0.669704
0.669705
0.669706
0.669706
0.669706
0.669707
0.669708
0.669709
0.669709
0.66971
0.66971
0.669711
0.669712
0.669712
0.669713
0.669713
0.669714
0.669715
0.669715
0.669716
0.669717
0.669717
0.669718
0.669718
0.669719
0.66972
0.669721
0.669722
0.669722
0.669722
0.669723
0.669724
0.669725
0.669725
0.669726
0.669727
0.669728
0.669729
0.669729
0.669729
0.66973
0.669731
0.669732
0.669732
0.669733
0.669734
0.669735
0.669736
0.669736
0.669737
0.669738
0.669739
0.669739
0.669739
0.66974
0.669741
0.669742
0.669743
0.669743
0.669744
0.669745
0.669746
0.669747
0.669747
0.669748
0.669749
0.66975
0.669751
0.669751
0.669752
0.669753
0.669754
0.669755
0.669755
0.669756
0.669757
0.669758
0.669759
0.669759
0.66976
0.669761
0.669762
0.669763
0.669763
0.669764
0.669765
0.669766
0.669768
0.669768
0.669769
0.66977
0.669771
0.669772
0.669772
0.669773
0.669774
0.669775
0.669776
0.669776
0.669777
0.669778
0.66978
0.669781
0.669781
0.669782
0.669783
0.669784
0.669785
0.669785
0.669786
0.669788
0.669789
0.66979
0.66979
0.669791
0.669792
0.669793
0.669795
0.669795
0.669796
0.669797
0.669798
0.669799
0.669799
0.669801
0.669802
0.669803
0.669804
0.669804
0.669805
0.669807
0.669808
0.669809
0.669809
0.66981
0.669812
0.669813
0.669814
0.669814
0.669815
0.669817
0.669818
0.669819
0.669819
0.66982
0.669822
0.669823
0.669824
0.669824
0.669826
0.669827
0.669828
0.66983
0.66983
0.669831
0.669832
0.669833
0.669835
0.669835
0.669836
0.669837
0.669839
0.66984
0.66984
0.669842
0.669843
0.669844
0.669846
0.669846
0.669847
0.669848
0.66985
0.669851
0.669851
0.669853
0.669854
0.669855
0.669857
0.669857
0.669858
0.66986
0.669861
0.669862
0.669862
0.669864
0.669865
0.669867
0.669868
0.669868
0.66987
0.669871
0.669873
0.669874
0.669874
0.669875
0.669877
0.669878
0.66988
0.66988
0.669881
0.669883
0.669884
0.669886
0.669886
0.669887
0.669889
0.66989
0.669892
0.669892
0.669893
0.669895
0.669896
0.669898
0.669898
0.6699
0.669901
0.669903
0.669904
0.669904
0.669906
0.669907
0.669909
0.66991
0.66991
0.669912
0.669914
0.669915
0.669917
0.669917
0.669918
0.66992
0.669922
0.669923
0.669923
0.669925
0.669927
0.669928
0.66993
0.66993
0.669931
0.669933
0.669935
0.669936
0.669936
0.669938
0.66994
0.669941
0.669943
0.669943
0.669945
0.669946
0.669948
0.66995
0.66995
0.669951
0.669953
0.669955
0.669957
0.669957
0.669958
0.66996
0.669962
0.669963
0.669963
0.669965
0.669967
0.669969
0.66997
0.66997
0.669972
0.669974
0.669976
0.669977
0.669977
0.669979
0.669981
0.669983
0.669984
0.669984
0.669986
0.669988
0.66999
0.669992
0.669992
0.669993
0.669995
0.669997
0.669999
0.669999
0.670001
0.670003
0.670004
0.670006
0.670006
0.670008
0.67001
0.670012
0.670014
0.670014
0.670016
0.670017
0.670019
0.670021
0.670021
0.670023
0.670025
0.670027
0.670029
0.670029
0.670031
0.670033
0.670034
0.670036
0.670036
0.670038
0.67004
0.670042
0.670044
0.670044
0.670046
0.670048
0.67005
0.670052
0.670052
0.670054
0.670056
0.670058
0.67006
0.67006
0.670062
0.670064
0.670066
0.670068
0.670068
0.67007
0.670072
0.670074
0.670076
0.670076
0.670078
0.67008
0.670082
0.670084
0.670084
0.670086
0.670088
0.67009
0.670092
0.670092
0.670094
0.670096
0.670098
0.6701
0.6701
0.670102
0.670104
0.670106
0.670108
0.670108
0.670111
0.670113
0.670115
0.670117
0.670117
0.670119
0.670121
0.670123
0.670125
0.670125
0.670127
0.67013
0.670132
0.670134
0.670134
0.670136
0.670138
0.67014
0.670142
0.670142
0.670145
0.670147
0.670149
0.670151
0.670151
0.670153
0.670156
0.670158
0.67016
0.67016
0.670162
0.670164
0.670167
0.670169
0.670169
0.670171
0.670173
0.670175
0.670178
0.670178
0.67018
0.670182
0.670184
0.670187
0.670187
0.670189
0.670191
0.670194
0.670196
0.670196
0.670198
0.6702
0.670203
0.670205
0.670205
0.670207
0.67021
0.670212
0.670214
0.670214
0.670217
0.670219
0.670221
0.670223
0.670223
0.670226
0.670228
0.670231
0.670233
0.670233
0.670235
0.670238
0.67024
0.670242
0.670242
0.670245
0.670247
0.670249
0.670252
0.670252
0.670254
0.670257
0.670259
0.670261
0.670261
0.670264
0.670266
0.670269
0.670271
0.670271
0.670274
0.670276
0.670278
0.670281
0.670281
0.670283
0.670286
0.670288
0.670291
0.670291
0.670293
0.670296
0.670298
0.670301
0.670301
0.670303
0.670306
0.670308
0.670311
0.670311
0.670313
0.670316
0.670318
0.670321
0.670321
0.670323
0.670326
0.670328
0.670331
0.670331
0.670333
0.670336
0.670339
0.670341
0.670341
0.670344
0.670346
0.670349
0.670351
0.670351
0.670354
0.670357
0.670359
0.670362
0.670362
0.670364
0.670367
0.67037
0.670372
0.670372
0.670375
0.670377
0.67038
0.670383
0.670383
0.670385
0.670388
0.670391
0.670393
0.670393
0.670396
0.670399
0.670401
0.670404
0.670404
0.670407
0.670409
0.670412
0.670415
0.670415
0.670417
0.67042
0.670423
0.670426
0.670426
0.670428
0.670431
0.670434
0.670436
0.670436
0.670439
0.670442
0.670445
0.670447
0.670447
0.67045
0.670453
0.670456
0.670459
0.670459
0.670461
0.670464
0.670467
0.67047
0.67047
0.670472
0.670475
0.670478
0.670481
0.670481
0.670484
0.670486
0.670489
0.670492
0.670492
0.670495
0.670498
0.670501
0.670504
0.670504
0.670506
0.670509
0.670512
0.670515
0.670515
0.670518
0.670521
0.670524
0.670526
0.670526
0.670529
0.670532
0.670535
0.670538
0.670538
0.670541
0.670544
0.670547
0.67055
0.67055
0.670553
0.670556
0.670559
0.670562
0.670562
0.670564
0.670567
0.67057
0.670573
0.670573
0.670576
0.670579
0.670582
0.670585
0.670585
0.670588
0.670591
0.670594
0.670597
0.670597
0.6706
0.670603
0.670606
0.670609
0.670609
0.670612
0.670615
0.670618
0.670621
0.670621
0.670624
0.670628
0.670631
0.670634
0.670634
0.670637
0.67064
0.670643
0.670646
0.670646
0.670649
0.670652
0.670655
0.670658
0.670658
0.670661
0.670664
0.670668
0.670671
0.670671
0.670674
0.670677
0.67068
0.670683
0.670683
0.670686
0.67069
0.670693
0.670696
0.670696
0.670699
0.670702
0.670705
0.670709
0.670709
0.670712
0.670715
0.670718
0.670721
0.670721
0.670724
0.670728
0.670731
0.670734
0.670734
0.670737
0.670741
0.670744
0.670747
0.670747
0.67075
0.670753
0.670757
0.67076
0.67076
0.670763
0.670766
0.67077
0.670773
0.670773
0.670776
0.67078
0.670783
0.670786
0.670786
0.670789
0.670793
0.670796
0.670799
0.670799
0.670803
0.670806
0.670809
0.670813
0.670813
0.670816
0.670819
0.670823
0.670826
0.670826
0.670829
0.670833
0.670836
0.670839
0.670839
0.670843
0.670846
0.67085
0.670853
0.670853
0.670856
0.67086
0.670863
0.670867
0.670867
0.67087
0.670873
0.670877
0.67088
0.67088
0.670884
0.670887
0.670891
0.670894
0.670894
0.670897
0.670901
0.670904
0.670908
0.670908
0.670911
0.670915
0.670918
0.670922
0.670922
0.670925
0.670929
0.670932
0.670936
0.670936
0.670939
0.670943
0.670946
0.67095
0.67095
0.670953
0.670957
0.67096
0.670964
0.670964
0.670967
0.670971
0.670975
0.670978
0.670978
0.670982
0.670985
0.670989
0.670992
0.670992
0.670996
0.671
0.671003
0.671007
0.671007
0.67101
0.671014
0.671018
0.671021
0.671021
0.671025
0.671029
0.671032
0.671036
0.671036
0.671039
0.671043
0.671047
0.67105
0.67105
0.671054
0.671058
0.671061
0.671065
0.671065
0.671069
0.671072
0.671076
0.67108
0.67108
0.671084
0.671087
0.671091
0.671095
0.671095
0.671098
0.671102
0.671106
0.67111
0.67111
0.671113
0.671117
0.671121
0.671125
0.671125
0.671128
0.671132
0.671136
0.67114
0.67114
0.671143
0.671147
0.671151
0.671155
0.671155
0.671159
0.671162
0.671166
0.67117
0.67117
0.671174
0.671178
0.671182
0.671185
0.671185
0.671189
0.671193
0.671197
0.671201
0.671201
0.671205
0.671208
0.671212
0.671216
0.671216
0.67122
0.671224
0.671228
0.671232
0.671232
0.671236
0.67124
0.671243
0.671247
0.671247
0.671251
0.671255
0.671259
0.671263
0.671263
0.671267
0.671271
0.671275
0.671279
0.671279
0.671283
0.671287
0.671291
0.671295
0.671295
0.671299
0.671303
0.671307
0.671311
0.671311
0.671315
0.671319
0.671323
0.671327
0.671327
0.671331
0.671335
0.671339
0.671343
0.671343
0.671347
0.671351
0.671355
0.671359
0.671359
0.671363
0.671367
0.671371
0.671375
0.671375
0.671379
0.671383
0.671387
0.671391
0.671391
0.671396
0.6714
0.671404
0.671408
0.671408
0.671412
0.671416
0.67142
0.671424
0.671424
0.671429
0.671433
0.671437
0.671441
0.671441
0.671445
0.671449
0.671453
0.671458
0.671458
0.671462
0.671466
0.67147
0.671474
0.671474
0.671478
0.671483
0.671487
0.671491
0.671491
0.671495
0.671499
0.671504
0.671508
0.671508
0.671512
0.671516
0.671521
0.671525
0.671525
0.671529
0.671533
0.671538
0.671542
0.671542
0.671546
0.67155
0.671555
0.671559
0.671559
0.671563
0.671568
0.671572
0.671576
0.671576
0.671581
0.671585
0.671589
0.671593
0.671593
0.671598
0.671602
0.671606
0.671611
0.671611
0.671615
0.67162
0.671624
0.671628
0.671628
0.671633
0.671637
0.671641
0.671646
0.671646
0.67165
0.671655
0.671659
0.671663
0.671663
0.671668
0.671672
0.671677
0.671681
0.671681
0.671685
0.67169
0.671694
0.671699
0.671699
0.671703
0.671708
0.671712
0.671717
0.671717
0.671721
0.671726
0.67173
0.671734
0.671734
0.671739
0.671743
0.671748
0.671752
0.671752
0.671757
0.671761
0.671766
0.67177
0.67177
0.671775
0.67178
0.671784
0.671789
0.671789
0.671793
0.671798
0.671802
0.671807
0.671807
0.671811
0.671816
0.671821
0.671825
0.671825
0.67183
0.671834
0.671839
0.671843
0.671843
0.671848
0.671853
0.671857
0.671862
0.671862
0.671867
0.671871
0.671876
0.67188
0.67188
0.671885
0.67189
0.671894
0.671899
0.671899
0.671904
0.671908
0.671913
0.671918
0.671918
0.671922
0.671927
0.671932
0.671937
0.671937
0.671941
0.671946
0.671951
0.671955
0.671955
0.67196
0.671965
0.67197
0.671974
0.671974
0.671979
0.671984
0.671989
0.671993
0.671993
0.671998
0.672003
0.672008
0.672012
0.672012
0.672017
0.672022
0.672027
0.672032
0.672032
0.672036
0.672041
0.672046
0.672051
0.672051
0.672056
0.672061
0.672065
0.67207
0.67207
0.672075
0.67208
0.672085
0.67209
0.67209
0.672094
0.672099
0.672104
0.672109
0.672109
0.672114
0.672119
0.672124
0.672129
0.672129
0.672134
0.672138
0.672143
0.672148
0.672148
0.672153
0.672158
0.672163
0.672168
0.672168
0.672173
0.672178
0.672183
0.672188
0.672188
0.672193
0.672198
0.672203
0.672208
0.672208
0.672213
0.672218
0.672223
0.672228
0.672228
0.672233
0.672238
0.672243
0.672248
0.672248
0.672253
0.672258
0.672263
0.672268
0.672268
0.672273
0.672278
0.672283
0.672288
0.672288
0.672293
0.672298
0.672303
0.672308
0.672308
0.672313
0.672318
0.672324
0.672329
0.672329
0.672334
0.672339
0.672344
0.672349
0.672349
0.672354
0.672359
0.672364
0.67237
0.67237
0.672375
0.67238
0.672385
0.67239
0.67239
0.672395
0.672401
0.672406
0.672411
0.672411
0.672416
0.672421
0.672427
0.672432
0.672432
0.672437
0.672442
0.672447
0.672453
0.672453
0.672458
0.672463
0.672468
0.672473
0.672473
0.672479
0.672484
0.672489
0.672494
0.672494
0.6725
0.672505
0.67251
0.672516
0.672516
0.672521
0.672526
0.672531
0.672537
0.672537
0.672542
0.672547
0.672553
0.672558
0.672558
0.672563
0.672569
0.672574
0.672579
0.672579
0.672585
0.67259
0.672595
0.672601
0.672601
0.672606
0.672611
0.672617
0.672622
0.672622
0.672628
0.672633
0.672638
0.672644
0.672644
0.672649
0.672655
0.67266
0.672665
0.672665
0.672671
0.672676
0.672682
0.672687
0.672687
0.672693
0.672698
0.672704
0.672709
0.672709
0.672714
0.67272
0.672725
0.672731
0.672731
0.672736
0.672742
0.672747
0.672753
0.672753
0.672758
0.672764
0.672769
0.672775
0.672775
0.67278
0.672786
0.672792
0.672797
0.672797
0.672803
0.672808
0.672814
0.672819
0.672819
0.672825
0.67283
0.672836
0.672842
0.672842
0.672847
0.672853
0.672858
0.672864
0.672864
0.67287
0.672875
0.672881
0.672886
0.672886
0.672892
0.672898
0.672903
0.672909
0.672909
0.672915
0.67292
0.672926
0.672932
0.672932
0.672937
0.672943
0.672949
0.672954
0.672954
0.67296
0.672966
0.672971
0.672977
0.672977
0.672983
0.672989
0.672994
0.673
0.673
0.673006
0.673011
0.673017
0.673023
0.673023
0.673029
0.673034
0.67304
0.673046
0.673046
0.673052
0.673057
0.673063
0.673069
0.673069
0.673075
0.673081
0.673086
0.673092
0.673092
0.673098
0.673104
0.67311
0.673116
0.673116
0.673121
0.673127
0.673133
0.673139
0.673139
0.673145
0.673151
0.673157
0.673162
0.673162
0.673168
0.673174
0.67318
0.673186
0.673186
0.673192
0.673198
0.673204
0.673209
0.673209
0.673215
0.673221
0.673227
0.673233
0.673233
0.673239
0.673245
0.673251
0.673257
0.673257
0.673263
0.673269
0.673275
0.673281
0.673281
0.673287
0.673293
0.673299
0.673305
0.673305
0.673311
0.673317
0.673323
0.673329
0.673329
0.673335
0.673341
0.673347
0.673353
0.673353
0.673359
0.673365
0.673371
0.673377
0.673377
0.673383
0.673389
0.673395
0.673401
0.673401
0.673407
0.673413
0.67342
0.673426
0.673426
0.673432
0.673438
0.673444
0.67345
0.67345
0.673456
0.673462
0.673468
0.673475
0.673475
0.673481
0.673487
0.673493
0.673499
0.673499
0.673505
0.673512
0.673518
0.673524
0.673524
0.67353
0.673536
0.673542
0.673549
0.673549
0.673555
0.673561
0.673567
0.673573
0.673573
0.67358
0.673586
0.673592
0.673598
0.673598
0.673605
0.673611
0.673617
0.673623
0.673623
0.67363
0.673636
0.673642
0.673648
0.673648
0.673655
0.673661
0.673667
0.673674
0.673674
0.67368
0.673686
0.673693
0.673699
0.673699
0.673705
0.673712
0.673718
0.673724
0.673724
0.673731
0.673737
0.673743
0.67375
0.67375
0.673756
0.673762
0.673769
0.673775
0.673775
0.673782
0.673788
0.673794
0.673801
0.673801
0.673807
0.673814
0.67382
0.673826
0.673826
0.673833
0.673839
0.673846
0.673852
0.673852
0.673859
0.673865
0.673872
0.673878
0.673878
0.673884
0.673891
0.673897
0.673904
0.673904
0.67391
0.673917
0.673923
0.67393
0.67393
0.673936
0.673943
0.673949
0.673956
0.673956
0.673963
0.673969
0.673976
0.673982
0.673982
0.673989
0.673995
0.674002
0.674008
0.674008
0.674015
0.674022
0.674028
0.674035
0.674035
0.674041
0.674048
0.674055
0.674061
0.674061
0.674068
0.674074
0.674081
0.674088
0.674088
0.674094
0.674101
0.674108
0.674114
0.674114
0.674121
0.674128
0.674134
0.674141
0.674141
0.674148
0.674154
0.674161
0.674168
0.674168
0.674174
0.674181
0.674188
0.674195
0.674195
0.674201
0.674208
0.674215
0.674221
0.674221
0.674228
0.674235
0.674242
0.674248
0.674248
0.674255
0.674262
0.674269
0.674276
0.674276
0.674282
0.674289
0.674296
0.674303
0.674303
0.674309
0.674316
0.674323
0.67433
0.67433
0.674337
0.674344
0.67435
0.674357
0.674357
0.674364
0.674371
0.674378
0.674385
0.674385
0.674392
0.674398
0.674405
0.674412
0.674412
0.674419
0.674426
0.674433
0.67444
0.67444
0.674447
0.674454
0.674461
0.674467
0.674467
0.674474
0.674481
0.674488
0.674495
0.674495
0.674502
0.674509
0.674516
0.674523
0.674523
0.67453
0.674537
0.674544
0.674551
0.674551
0.674558
0.674565
0.674572
0.674579
0.674579
0.674586
0.674593
0.6746
0.674607
0.674607
0.674614
0.674621
0.674628
0.674635
0.674635
0.674642
0.674649
0.674656
0.674664
0.674664
0.674671
0.674678
0.674685
0.674692
0.674692
0.674699
0.674706
0.674713
0.67472
0.67472
0.674728
0.674735
0.674742
0.674749
0.674749
0.674756
0.674763
0.67477
0.674778
0.674778
0.674785
0.674792
0.674799
0.674806
0.674806
0.674813
0.674821
0.674828
0.674835
0.674835
0.674842
0.674849
0.674857
0.674864
0.674864
0.674871
0.674878
0.674886
0.674893
0.674893
0.6749
0.674907
0.674915
0.674922
0.674922
0.674929
0.674936
0.674944
0.674951
0.674951
0.674958
0.674966
0.674973
0.67498
0.67498
0.674987
0.674995
0.675002
0.675009
0.675009
0.675017
0.675024
0.675031
0.675039
0.675039
0.675046
0.675054
0.675061
0.675068
0.675068
0.675076
0.675083
0.67509
0.675098
0.675098
0.675105
0.675113
0.67512
0.675127
0.675127
0.675135
0.675142
0.67515
0.675157
0.675157
0.675165
0.675172
0.675179
0.675187
0.675187
0.675194
0.675202
0.675209
0.675217
0.675217
0.675224
0.675232
0.675239
0.675247
0.675247
0.675254
0.675262
0.675269
0.675277
0.675277
0.675284
0.675292
0.6753
0.675307
0.675307
0.675315
0.675322
0.67533
0.675337
0.675337
0.675345
0.675352
0.67536
0.675368
0.675368
0.675375
0.675383
0.67539
0.675398
0.675398
0.675406
0.675413
0.675421
0.675428
0.675428
0.675436
0.675444
0.675451
0.675459
0.675459
0.675467
0.675474
0.675482
0.67549
0.67549
0.675497
0.675505
0.675513
0.67552
0.67552
0.675528
0.675536
0.675544
0.675551
0.675551
0.675559
0.675567
0.675574
0.675582
0.675582
0.67559
0.675598
0.675605
0.675613
0.675613
0.675621
0.675629
0.675637
0.675644
0.675644
0.675652
0.67566
0.675668
0.675676
0.675676
0.675683
0.675691
0.675699
0.675707
0.675707
0.675715
0.675722
0.67573
0.675738
0.675738
0.675746
0.675754
0.675762
0.67577
0.67577
0.675777
0.675785
0.675793
0.675801
0.675801
0.675809
0.675817
0.675825
0.675833
0.675833
0.675841
0.675849
0.675856
0.675864
0.675864
0.675872
0.67588
0.675888
0.675896
0.675896
0.675904
0.675912
0.67592
0.675928
0.675928
0.675936
0.675944
0.675952
0.67596
0.67596
0.675968
0.675976
0.675984
0.675992
0.675992
0.676
0.676008
0.676016
0.676024
0.676024
0.676032
0.67604
0.676048
0.676056
0.676056
0.676065
0.676073
0.676081
0.676089
0.676089
0.676097
0.676105
0.676113
0.676121
0.676121
0.676129
0.676137
0.676145
0.676154
0.676154
0.676162
0.67617
0.676178
0.676186
0.676186
0.676194
0.676203
0.676211
0.676219
0.676219
0.676227
0.676235
0.676243
0.676252
0.676252
0.67626
0.676268
0.676276
0.676284
0.676284
0.676293
0.676301
0.676309
0.676317
0.676317
0.676326
0.676334
0.676342
0.67635
0.67635
0.676359
0.676367
0.676375
0.676383
0.676383
0.676392
0.6764
0.676408
0.676417
0.676417
0.676425
0.676433
0.676442
0.67645
0.67645
0.676458
0.676467
0.676475
0.676483
0.676483
0.676492
0.6765
0.676508
0.676517
0.676517
0.676525
0.676533
0.676542
0.67655
0.67655
0.676559
0.676567
0.676576
0.676584
0.676584
0.676592
0.676601
0.676609
0.676618
0.676618
0.676626
0.676635
0.676643
0.676651
0.676651
0.67666
0.676668
0.676677
0.676685
0.676685
0.676694
0.676702
0.676711
0.676719
0.676719
0.676728
0.676736
0.676745
0.676753
0.676753
0.676762
0.67677
0.676779
0.676788
0.676788
0.676796
0.676805
0.676813
0.676822
0.676822
0.67683
0.676839
0.676848
0.676856
0.676856
0.676865
0.676873
0.676882
0.676891
0.676891
0.676899
0.676908
0.676916
0.676925
0.676925
0.676934
0.676942
0.676951
0.67696
0.67696
0.676968
0.676977
0.676986
0.676994
0.676994
0.677003
0.677012
0.67702
0.677029
0.677029
0.677038
0.677047
0.677055
0.677064
0.677064
0.677073
0.677081
0.67709
0.677099
0.677099
0.677108
0.677116
0.677125
0.677134
0.677134
0.677143
0.677152
0.67716
0.677169
0.677169
0.677178
0.677187
0.677196
0.677204
0.677204
0.677213
0.677222
0.677231
0.67724
0.67724
0.677249
0.677257
0.677266
0.677275
0.677275
0.677284
0.677293
0.677302
0.677311
0.677311
0.67732
0.677328
0.677337
0.677346
0.677346
0.677355
0.677364
0.677373
0.677382
0.677382
0.677391
0.6774
0.677409
0.677418
0.677418
0.677427
0.677436
0.677445
0.677453
0.677453
0.677462
0.677471
0.67748
0.677489
0.677489
0.677498
0.677507
0.677516
0.677526
0.677526
0.677535
0.677544
0.677553
0.677562
0.677562
0.677571
0.67758
0.677589
0.677598
0.677598
0.677607
0.677616
0.677625
0.677634
0.677634
0.677643
0.677652
0.677661
0.677671
0.677671
0.67768
0.677689
0.677698
0.677707
0.677707
0.677716
0.677725
0.677734
0.677744
0.677744
0.677753
0.677762
0.677771
0.67778
0.67778
0.677789
0.677799
0.677808
0.677817
0.677817
0.677826
0.677835
0.677845
0.677854
0.677854
0.677863
0.677872
0.677882
0.677891
0.677891
0.6779
0.677909
0.677919
0.677928
0.677928
0.677937
0.677946
0.677956
0.677965
0.677965
0.677974
0.677984
0.677993
0.678002
0.678002
0.678011
0.678021
0.67803
0.678039
0.678039
0.678049
0.678058
0.678068
0.678077
0.678077
0.678086
0.678096
0.678105
0.678114
0.678114
0.678124
0.678133
0.678143
0.678152
0.678152
0.678161
0.678171
0.67818
0.67819
0.67819
0.678199
0.678208
0.678218
0.678227
0.678227
0.678237
0.678246
0.678256
0.678265
0.678265
0.678275
0.678284
0.678294
0.678303
0.678303
0.678313
0.678322
0.678332
0.678341
0.678341
0.678351
0.67836
0.67837
0.678379
0.678379
0.678389
0.678398
0.678408
0.678418
0.678418
0.678427
0.678437
0.678446
0.678456
0.678456
0.678465
0.678475
0.678485
0.678494
0.678494
0.678504
0.678514
0.678523
0.678533
0.678533
0.678542
0.678552
0.678562
0.678571
0.678571
0.678581
0.678591
0.6786
0.67861
0.67861
0.67862
0.678629
0.678639
0.678649
0.678649
0.678659
0.678668
0.678678
0.678688
0.678688
0.678697
0.678707
0.678717
0.678727
0.678727
0.678736
0.678746
0.678756
0.678766
0.678766
0.678775
0.678785
0.678795
0.678805
0.678805
0.678815
0.678824
0.678834
0.678844
0.678844
0.678854
0.678864
0.678874
0.678883
0.678883
0.678893
0.678903
0.678913
0.678923
0.678923
0.678933
0.678943
0.678952
0.678962
0.678962
0.678972
0.678982
0.678992
0.679002
0.679002
0.679012
0.679022
0.679032
0.679042
0.679042
0.679052
0.679061
0.679071
0.679081
0.679081
0.679091
0.679101
0.679111
0.679121
0.679121
0.679131
0.679141
0.679151
0.679161
0.679161
0.679171
0.679181
0.679191
0.679201
0.679201
0.679211
0.679221
0.679231
0.679241
0.679241
0.679252
0.679262
0.679272
0.679282
0.679282
0.679292
0.679302
0.679312
0.679322
0.679322
0.679332
0.679342
0.679352
0.679362
0.679362
0.679373
0.679383
0.679393
0.679403
0.679403
0.679413
0.679423
0.679433
0.679444
0.679444
0.679454
0.679464
0.679474
0.679484
0.679484
0.679495
0.679505
0.679515
0.679525
0.679525
0.679535
0.679546
0.679556
0.679566
0.679566
0.679576
0.679587
0.679597
0.679607
0.679607
0.679617
0.679628
0.679638
0.679648
0.679648
0.679658
0.679669
0.679679
0.679689
0.679689
0.6797
0.67971
0.67972
0.679731
0.679731
0.679741
0.679751
0.679762
0.679772
0.679772
0.679782
0.679793
0.679803
0.679814
0.679814
0.679824
0.679834
0.679845
0.679855
0.679855
0.679866
0.679876
0.679886
0.679897
0.679897
0.679907
0.679918
0.679928
0.679938
0.679938
0.679949
0.679959
0.67997
0.67998
0.67998
0.679991
0.680001
0.680012
0.680022
0.680022
0.680033
0.680043
0.680054
0.680064
0.680064
0.680075
0.680085
0.680096
0.680106
0.680106
0.680117
0.680128
0.680138
0.680149
0.680149
0.680159
0.68017
0.68018
0.680191
0.680191
0.680202
0.680212
0.680223
0.680233
0.680233
0.680244
0.680255
0.680265
0.680276
0.680276
0.680287
0.680297
0.680308
0.680319
0.680319
0.680329
0.68034
0.680351
0.680361
0.680361
0.680372
0.680383
0.680393
0.680404
0.680404
0.680415
0.680426
0.680436
0.680447
0.680447
0.680458
0.680468
0.680479
0.68049
0.68049
0.680501
0.680512
0.680522
0.680533
0.680533
0.680544
0.680555
0.680565
0.680576
0.680576
0.680587
0.680598
0.680609
0.68062
0.68062
0.68063
0.680641
0.680652
0.680663
0.680663
0.680674
0.680685
0.680695
0.680706
0.680706
0.680717
0.680728
0.680739
0.68075
0.68075
0.680761
0.680772
0.680783
0.680794
0.680794
0.680805
0.680815
0.680826
0.680837
0.680837
0.680848
0.680859
0.68087
0.680881
0.680881
0.680892
0.680903
0.680914
0.680925
0.680925
0.680936
0.680947
0.680958
0.680969
0.680969
0.68098
0.680991
0.681002
0.681013
0.681013
0.681024
0.681035
0.681047
0.681058
0.681058
0.681069
0.68108
0.681091
0.681102
0.681102
0.681113
0.681124
0.681135
0.681146
0.681146
0.681157
0.681169
0.68118
0.681191
0.681191
0.681202
0.681213
0.681224
0.681236
0.681236
0.681247
0.681258
0.681269
0.68128
0.68128
0.681291
0.681303
0.681314
0.681325
0.681325
0.681336
0.681347
0.681359
0.68137
0.68137
0.681381
0.681392
0.681404
0.681415
0.681415
0.681426
0.681438
0.681449
0.68146
0.68146
0.681471
0.681483
0.681494
0.681505
0.681505
0.681517
0.681528
0.681539
0.681551
0.681551
0.681562
0.681573
0.681585
0.681596
0.681596
0.681607
0.681619
0.68163
0.681642
0.681642
0.681653
0.681664
0.681676
0.681687
0.681687
0.681699
0.68171
0.681721
0.681733
0.681733
0.681744
0.681756
0.681767
0.681779
0.681779
0.68179
0.681802
0.681813
0.681825
0.681825
0.681836
0.681848
0.681859
0.681871
0.681871
0.681882
0.681894
0.681905
0.681917
0.681917
0.681928
0.68194
0.681951
0.681963
0.681963
0.681974
0.681986
0.681997
0.682009
0.682009
0.682021
0.682032
0.682044
0.682055
0.682055
0.682067
0.682079
0.68209
0.682102
0.682102
0.682114
0.682125
0.682137
0.682149
0.682149
0.68216
0.682172
0.682184
0.682195
0.682195
0.682207
0.682219
0.68223
0.682242
0.682242
0.682254
0.682265
0.682277
0.682289
0.682289
0.682301
0.682312
0.682324
0.682336
0.682336
0.682348
0.682359
0.682371
0.682383
0.682383
0.682395
0.682406
0.682418
0.68243
0.68243
0.682442
0.682454
0.682466
0.682477
0.682477
0.682489
0.682501
0.682513
0.682525
0.682525
0.682537
0.682548
0.68256
0.682572
0.682572
0.682584
0.682596
0.682608
0.68262
0.68262
0.682632
0.682644
0.682656
0.682667
0.682667
0.682679
0.682691
0.682703
0.682715
0.682715
0.682727
0.682739
0.682751
0.682763
0.682763
0.682775
0.682787
0.682799
0.682811
0.682811
0.682823
0.682835
0.682847
0.682859
0.682859
0.682871
0.682883
0.682895
0.682907
0.682907
0.682919
0.682931
0.682943
0.682956
0.682956
0.682968
0.68298
0.682992
0.683004
0.683004
0.683016
0.683028
0.68304
0.683052
0.683052
0.683065
0.683077
0.683089
0.683101
0.683101
0.683113
0.683125
0.683137
0.68315
0.68315
0.683162
0.683174
0.683186
0.683198
0.683198
0.683211
0.683223
0.683235
0.683247
0.683247
0.68326
0.683272
0.683284
0.683296
0.683296
0.683308
0.683321
0.683333
0.683345
0.683345
0.683358
0.68337
0.683382
0.683394
0.683394
0.683407
0.683419
0.683431
0.683444
0.683444
0.683456
0.683468
0.683481
0.683493
0.683493
0.683505
0.683518
0.68353
0.683543
0.683543
0.683555
0.683567
0.68358
0.683592
0.683592
0.683605
0.683617
0.683629
0.683642
0.683642
0.683654
0.683667
0.683679
0.683692
0.683692
0.683704
0.683717
0.683729
0.683741
0.683741
0.683754
0.683766
0.683779
0.683791
0.683791
0.683804
0.683817
0.683829
0.683842
0.683842
0.683854
0.683867
0.683879
0.683892
0.683892
0.683904
0.683917
0.683929
0.683942
0.683942
0.683955
0.683967
0.68398
0.683992
0.683992
0.684005
0.684018
0.68403
0.684043
0.684043
0.684056
0.684068
0.684081
0.684093
0.684093
0.684106
0.684119
0.684131
0.684144
0.684144
0.684157
0.68417
0.684182
0.684195
0.684195
0.684208
0.68422
0.684233
0.684246
0.684246
0.684259
0.684271
0.684284
0.684297
0.684297
0.68431
0.684322
0.684335
0.684348
0.684348
0.684361
0.684374
0.684386
0.684399
0.684399
0.684412
0.684425
0.684438
0.68445
0.68445
0.684463
0.684476
0.684489
0.684502
0.684502
0.684515
0.684528
0.684541
0.684553
0.684553
0.684566
0.684579
0.684592
0.684605
0.684605
0.684618
0.684631
0.684644
0.684657
0.684657
0.68467
0.684683
0.684696
0.684709
0.684709
0.684722
0.684734
0.684747
0.68476
0.68476
0.684773
0.684786
0.684799
0.684813
0.684813
0.684826
0.684839
0.684852
0.684865
0.684865
0.684878
0.684891
0.684904
0.684917
0.684917
0.68493
0.684943
0.684956
0.684969
0.684969
0.684982
0.684995
0.685009
0.685022
0.685022
0.685035
0.685048
0.685061
0.685074
0.685074
0.685087
0.685101
0.685114
0.685127
0.685127
0.68514
0.685153
0.685166
0.68518
0.68518
0.685193
0.685206
0.685219
0.685232
0.685232
0.685246
0.685259
0.685272
0.685285
0.685285
0.685299
0.685312
0.685325
0.685338
0.685338
0.685352
0.685365
0.685378
0.685392
0.685392
0.685405
0.685418
0.685432
0.685445
0.685445
0.685458
0.685472
0.685485
0.685498
0.685498
0.685512
0.685525
0.685538
0.685552
0.685552
0.685565
0.685579
0.685592
0.685605
0.685605
0.685619
0.685632
0.685646
0.685659
0.685659
0.685672
0.685686
0.685699
0.685713
0.685713
0.685726
0.68574
0.685753
0.685767
0.685767
0.68578
0.685794
0.685807
0.685821
0.685821
0.685834
0.685848
0.685861
0.685875
0.685875
0.685888
0.685902
0.685916
0.685929
0.685929
0.685943
0.685956
0.68597
0.685983
0.685983
0.685997
0.686011
0.686024
0.686038
0.686038
0.686051
0.686065
0.686079
0.686092
0.686092
0.686106
0.68612
0.686133
0.686147
0.686147
0.686161
0.686174
0.686188
0.686202
0.686202
0.686215
0.686229
0.686243
0.686257
0.686257
0.68627
0.686284
0.686298
0.686312
0.686312
0.686325
0.686339
0.686353
0.686367
0.686367
0.68638
0.686394
0.686408
0.686422
0.686422
0.686436
0.686449
0.686463
0.686477
0.686477
0.686491
0.686505
0.686519
0.686532
0.686532
0.686546
0.68656
0.686574
0.686588
0.686588
0.686602
0.686616
0.68663
0.686643
0.686643
0.686657
0.686671
0.686685
0.686699
0.686699
0.686713
0.686727
0.686741
0.686755
0.686755
0.686769
0.686783
0.686797
0.686811
0.686811
0.686825
0.686839
0.686853
0.686867
0.686867
0.686881
0.686895
0.686909
0.686923
0.686923
0.686937
0.686951
0.686965
0.686979
0.686979
0.686993
0.687007
0.687021
0.687036
0.687036
0.68705
0.687064
0.687078
0.687092
0.687092
0.687106
0.68712
0.687134
0.687149
0.687149
0.687163
0.687177
0.687191
0.687205
0.687205
0.687219
0.687234
0.687248
0.687262
0.687262
0.687276
0.68729
0.687305
0.687319
0.687319
0.687333
0.687347
0.687362
0.687376
0.687376
0.68739
0.687404
0.687419
0.687433
0.687433
0.687447
0.687462
0.687476
0.68749
0.68749
0.687504
0.687519
0.687533
0.687547
0.687547
0.687562
0.687576
0.68759
0.687605
0.687605
0.687619