<?xml version="1.0"?>
<VTKFile type="UnstructuredGrid" version="0.1" byte_order="LittleEndian">
<UnstructuredGrid>
<Piece NumberOfPoints="5000" NumberOfCells="4000">
<PointData Scalars="Reaction 0">
<DataArray type="Float32" Name="Reaction 0" format="ascii">
0.293948
0.293948
0.293948
0.293948
0.293948
0.293948
0.293949
0.293949
0.293949
0.293949
0.293949
0.29395
0.29395
0.29395
0.293951
0.293951
0.293951
0.293951
0.293952
0.293952
0.293952
0.293953
0.293953
0.293954
0.293955
0.293955
0.293955
0.293956
0.293957
0.293958
0.293958
0.293958
0.293959
0.29396
0.293961
0.293961
0.293962
0.293963
0.293964
0.293965
0.293965
0.293966
0.293967
0.293968
0.293969
0.293969
0.29397
0.293972
0.293973
0.293974
0.293974
0.293975
0.293977
0.293978
0.29398
0.29398
0.293981
0.293982
0.293984
0.293985
0.293985
0.293987
0.293989
0.29399
0.293992
0.293992
0.293994
0.293995
0.293997
0.293999
0.293999
0.294001
0.294003
0.294004
0.294006
0.294006
0.294008
0.29401
0.294012
0.294014
0.294014
0.294016
0.294019
0.294021
0.294023
0.294023
0.294025
0.294027
0.29403
0.294032
0.294032
0.294034
0.294037
0.294039
0.294042
0.294042
0.294044
0.294047
0.294049
0.294052
0.294052
0.294054
0.294057
0.29406
0.294062
0.294062
0.294065
0.294068
0.294071
0.294073
0.294073
0.294076
0.294079
0.294082
0.294085
0.294085
0.294088
0.294091
0.294094
0.294097
0.294097
0.2941
0.294103
0.294107
0.29411
0.29411
0.294113
0.294116
0.29412
0.294123
0.294123
0.294126
0.29413
0.294133
0.294137
0.294137
0.29414
0.294144
0.294147
0.294151
0.294151
0.294155
0.294158
0.294162
0.294166
0.294166
0.294169
0.294173
0.294177
0.294181
0.294181
0.294185
0.294189
0.294193
0.294197
0.294197
0.294201
0.294205
0.294209
0.294213
0.294213
0.294217
0.294221
0.294226
0.29423
0.29423
0.294234
0.294238
0.294243
0.294247
0.294247
0.294252
0.294256
0.29426
0.294265
0.294265
0.29427
0.294274
0.294279
0.294283
0.294283
0.294288
0.294293
0.294297
0.294302
0.294302
0.294307
0.294312
0.294317
0.294322
0.294322
0.294327
0.294331
0.294336
0.294341
0.294341
0.294347
0.294352
0.294357
0.294362
0.294362
0.294367
0.294372
0.294378
0.294383
0.294383
0.294388
0.294394
0.294399
0.294404
0.294404
0.29441
0.294415
0.294421
0.294426
0.294426
0.294432
0.294437
0.294443
0.294449
0.294449
0.294454
0.29446
0.294466
0.294472
0.294472
0.294478
0.294483
0.294489
0.294495
0.294495
0.294501
0.294507
0.294513
0.294519
0.294519
0.294525
0.294532
0.294538
0.294544
0.294544
0.29455
0.294556
0.294563
0.294569
0.294569
0.294575
0.294582
0.294588
0.294595
0.294595
0.294601
0.294608
0.294614
0.294621
0.294621
0.294627
0.294634
0.294641
0.294647
0.294647
0.294654
0.294661
0.294668
0.294674
0.294674
0.294681
0.294688
0.294695
0.294702
0.294702
0.294709
0.294716
0.294723
0.29473
0.29473
0.294737
0.294745
0.294752
0.294759
0.294759
0.294766
0.294774
0.294781
0.294788
0.294788
0.294796
0.294803
0.29481
0.294818
0.294818
0.294825
0.294833
0.294841
0.294848
0.294848
0.294856
0.294864
0.294871
0.294879
0.294879
0.294887
0.294895
0.294902
0.29491
0.29491
0.294918
0.294926
0.294934
0.294942
0.294942
0.29495
0.294958
0.294966
0.294974
0.294974
0.294982
0.294991
0.294999
0.295007
0.295007
0.295015
0.295024
0.295032
0.295041
0.295041
0.295049
0.295057
0.295066
0.295074
0.295074
0.295083
0.295091
0.2951
0.295109
0.295109
0.295117
0.295126
0.295135
0.295144
0.295144
0.295152
0.295161
0.29517
0.295179
0.295179
0.295188
0.295197
0.295206
0.295215
0.295215
0.295224
0.295233
0.295242
0.295251
0.295251
0.295261
0.29527
0.295279
0.295288
0.295288
0.295298
0.295307
0.295316
0.295326
0.295326
0.295335
0.295345
0.295354
0.295364
0.295364
0.295373
0.295383
0.295393
0.295402
0.295402
0.295412
0.295422
0.295432
0.295441
0.295441
0.295451
0.295461
0.295471
0.295481
0.295481
0.295491
0.295501
0.295511
0.295521
0.295521
0.295531
0.295541
0.295551
0.295562
0.295562
0.295572
0.295582
0.295592
0.295603
0.295603
0.295613
0.295623
0.295634
0.295644
0.295644
0.295655
0.295665
0.295676
0.295686
0.295686
0.295697
0.295708
0.295718
0.295729
0.295729
0.29574
0.29575
0.295761
0.295772
0.295772
0.295783
0.295794
0.295805
0.295816
0.295816
0.295827
0.295838
0.295849
0.29586
0.29586
0.295871
0.295882
0.295893
0.295905
0.295905
0.295916
0.295927
0.295939
0.29595
0.29595
0.295961
0.295973
0.295984
0.295996
0.295996
0.296007
0.296019
0.29603
0.296042
0.296042
0.296054
0.296065
0.296077
0.296089
0.296089
0.2961
0.296112
0.296124
0.296136
0.296136
0.296148
0.29616
0.296172
0.296184
0.296184
0.296196
0.296208
0.29622
0.296232
0.296232
0.296244
0.296256
0.296269
0.296281
0.296281
0.296293
0.296305
0.296318
0.29633
0.29633
0.296343
0.296355
0.296368
0.29638
0.29638
0.296393
0.296405
0.296418
0.29643
0.29643
0.296443
0.296456
0.296469
0.296481
0.296481
0.296494
0.296507
0.29652
0.296533
0.296533
0.296546
0.296559
0.296572
0.296585
0.296585
0.296598
0.296611
0.296624
0.296637
0.296637
0.29665
0.296664
0.296677
0.29669
0.29669
0.296703
0.296717
0.29673
0.296744
0.296744
0.296757
0.29677
0.296784
0.296798
0.296798
0.296811
0.296825
0.296838
0.296852
0.296852
0.296866
0.296879
0.296893
0.296907
0.296907
0.296921
0.296935
0.296949
0.296963
0.296963
0.296977
0.296991
0.297005
0.297019
0.297019
0.297033
0.297047
0.297061
0.297075
0.297075
0.297089
0.297104
0.297118
0.297132
0.297132
0.297147
0.297161
0.297175
0.29719
0.29719
0.297204
0.297219
0.297233
0.297248
0.297248
0.297263
0.297277
0.297292
0.297307
0.297307
0.297321
0.297336
0.297351
0.297366
0.297366
0.297381
0.297395
0.29741
0.297425
0.297425
0.29744
0.297455
0.29747
0.297485
0.297485
0.297501
0.297516
0.297531
0.297546
0.297546
0.297561
0.297577
0.297592
0.297607
0.297607
0.297623
0.297638
0.297654
0.297669
0.297669
0.297685
0.2977
0.297716
0.297731
0.297731
0.297747
0.297763
0.297778
0.297794
0.297794
0.29781
0.297826
0.297841
0.297857
0.297857
0.297873
0.297889
0.297905
0.297921
0.297921
0.297937
0.297953
0.297969
0.297985
0.297985
0.298002
0.298018
0.298034
0.29805
0.29805
0.298066
0.298083
0.298099
0.298115
0.298115
0.298132
0.298148
0.298165
0.298181
0.298181
0.298198
0.298214
0.298231
0.298248
0.298248
0.298264
0.298281
0.298298
0.298315
0.298315
0.298331
0.298348
0.298365
0.298382
0.298382
0.298399
0.298416
0.298433
0.29845
0.29845
0.298467
0.298484
0.298501
0.298518
0.298518
0.298535
0.298553
0.29857
0.298587
0.298587
0.298604
0.298622
0.298639
0.298657
0.298657
0.298674
0.298691
0.298709
0.298726
0.298726
0.298744
0.298762
0.298779
0.298797
0.298797
0.298815
0.298832
0.29885
0.298868
0.298868
0.298886
0.298904
0.298921
0.298939
0.298939
0.298957
0.298975
0.298993
0.299011
0.299011
0.299029
0.299048
0.299066
0.299084
0.299084
0.299102
0.29912
0.299139
0.299157
0.299157
0.299175
0.299194
0.299212
0.29923
0.29923
0.299249
0.299267
0.299286
0.299305
0.299305
0.299323
0.299342
0.29936
0.299379
0.299379
0.299398
0.299417
0.299435
0.299454
0.299454
0.299473
0.299492
0.299511
0.29953
0.29953
0.299549
0.299568
0.299587
0.299606
0.299606
0.299625
0.299644
0.299663
0.299683
0.299683
0.299702
0.299721
0.29974
0.29976
0.29976
0.299779
0.299798
0.299818
0.299837
0.299837
0.299857
0.299876
0.299896
0.299915
0.299915
0.299935
0.299955
0.299974
0.299994
0.299994
0.300014
0.300034
0.300053
0.300073
0.300073
0.300093
0.300113
0.300133
0.300153
0.300153
0.300173
0.300193
0.300213
0.300233
0.300233
0.300253
0.300274
0.300294
0.300314
0.300314
0.300334
0.300355
0.300375
0.300395
0.300395
0.300416
0.300436
0.300457
0.300477
0.300477
0.300498
0.300518
0.300539
0.300559
0.300559
0.30058
0.300601
0.300621
0.300642
0.300642
0.300663
0.300684
0.300704
0.300725
0.300725
0.300746
0.300767
0.300788
0.300809
0.300809
0.30083
0.300851
0.300872
0.300893
0.300893
0.300915
0.300936
0.300957
0.300978
0.300978
0.301
0.301021
0.301042
0.301064
0.301064
0.301085
0.301107
0.301128
0.30115
0.30115
0.301171
0.301193
0.301214
0.301236
0.301236
0.301258
0.301279
0.301301
0.301323
0.301323
0.301345
0.301366
0.301388
0.30141
0.30141
0.301432
0.301454
0.301476
0.301498
0.301498
0.30152
0.301542
0.301564
0.301587
0.301587
0.301609
0.301631
0.301653
0.301675
0.301675
0.301698
0.30172
0.301743
0.301765
0.301765
0.301787
0.30181
0.301832
0.301855
0.301855
0.301877
0.3019
0.301923
0.301945
0.301945
0.301968
0.301991
0.302014
0.302036
0.302036
0.302059
0.302082
0.302105
0.302128
0.302128
0.302151
0.302174
0.302197
0.30222
0.30222
0.302243
0.302266
0.302289
0.302312
0.302312
0.302336
0.302359
0.302382
0.302405
0.302405
0.302429
0.302452
0.302476
0.302499
0.302499
0.302522
0.302546
0.302569
0.302593
0.302593
0.302617
0.30264
0.302664
0.302688
0.302688
0.302711
0.302735
0.302759
0.302783
0.302783
0.302807
0.30283
0.302854
0.302878
0.302878
0.302902
0.302926
0.30295
0.302974
0.302974
0.302999
0.303023
0.303047
0.303071
0.303071
0.303095
0.30312
0.303144
0.303168
0.303168
0.303193
0.303217
0.303241
0.303266
0.303266
0.30329
0.303315
0.303339
0.303364
0.303364
0.303389
0.303413
0.303438
0.303463
0.303463
0.303487
0.303512
0.303537
0.303562
0.303562
0.303587
0.303612
0.303636
0.303661
0.303661
0.303686
0.303711
0.303737
0.303762
0.303762
0.303787
0.303812
0.303837
0.303862
0.303862
0.303888
0.303913
0.303938
0.303964
0.303964
0.303989
0.304014
0.30404
0.304065
0.304065
0.304091
0.304116
0.304142
0.304168
0.304168
0.304193
0.304219
0.304245
0.30427
0.30427
0.304296
0.304322
0.304348
0.304374
0.304374
0.304399
0.304425
0.304451
0.304477
0.304477
0.304503
0.304529
0.304556
0.304582
0.304582
0.304608
0.304634
0.30466
0.304686
0.304686
0.304713
0.304739
0.304765
0.304792
0.304792
0.304818
0.304845
0.304871
0.304898
0.304898
0.304924
0.304951
0.304977
0.305004
0.305004
0.305031
0.305057
0.305084
0.305111
0.305111
0.305137
0.305164
0.305191
0.305218
0.305218
0.305245
0.305272
0.305299
0.305326
0.305326
0.305353
0.30538
0.305407
0.305434
0.305434
0.305461
0.305489
0.305516
0.305543
0.305543
0.30557
0.305598
0.305625
0.305653
0.305653
0.30568
0.305707
0.305735
0.305762
0.305762
0.30579
0.305818
0.305845
0.305873
0.305873
0.305901
0.305928
0.305956
0.305984
0.305984
0.306012
0.306039
0.306067
0.306095
0.306095
0.306123
0.306151
0.306179
0.306207
0.306207
0.306235
0.306263
0.306291
0.30632
0.30632
0.306348
0.306376
0.306404
0.306433
0.306433
0.306461
0.306489
0.306518
0.306546
0.306546
0.306574
0.306603
0.306631
0.30666
0.30666
0.306689
0.306717
0.306746
0.306774
0.306774
0.306803
0.306832
0.306861
0.306889
0.306889
0.306918
0.306947
0.306976
0.307005
0.307005
0.307034
0.307063
0.307092
0.307121
0.307121
0.30715
0.307179
0.307208
0.307237
0.307237
0.307267
0.307296
0.307325
0.307354
0.307354
0.307384
0.307413
0.307443
0.307472
0.307472
0.307501
0.307531
0.307561
0.30759
0.30759
0.30762
0.307649
0.307679
0.307709
0.307709
0.307738
0.307768
0.307798
0.307828
0.307828
0.307858
0.307887
0.307917
0.307947
0.307947
0.307977
0.308007
0.308037
0.308067
0.308067
0.308097
0.308128
0.308158
0.308188
0.308188
0.308218
0.308248
0.308279
0.308309
0.308309
0.308339
0.30837
0.3084
0.308431
0.308431
0.308461
0.308492
0.308522
0.308553
0.308553
0.308583
0.308614
0.308645
0.308675
0.308675
0.308706
0.308737
0.308768
0.308798
0.308798
0.308829
0.30886
0.308891
0.308922
0.308922
0.308953
0.308984
0.309015
0.309046
0.309046
0.309077
0.309109
0.30914
0.309171
0.309171
0.309202
0.309233
0.309265
0.309296
0.309296
0.309327
0.309359
0.30939
0.309422
0.309422
0.309453
0.309485
0.309516
0.309548
0.309548
0.30958
0.309611
0.309643
0.309675
0.309675
0.309706
0.309738
0.30977
0.309802
0.309802
0.309834
0.309866
0.309898
0.309929
0.309929
0.309961
0.309994
0.310026
0.310058
0.310058
0.31009
0.310122
0.310154
0.310186
0.310186
0.310219
0.310251
0.310283
0.310316
0.310316
0.310348
0.31038
0.310413
0.310445
0.310445
0.310478
0.31051
0.310543
0.310576
0.310576
0.310608
0.310641
0.310674
0.310706
0.310706
0.310739
0.310772
0.310805
0.310838
0.310838
0.31087
0.310903
0.310936
0.310969
0.310969
0.311002
0.311035
0.311068
0.311102
0.311102
0.311135
0.311168
0.311201
0.311234
0.311234
0.311268
0.311301
0.311334
0.311368
0.311368
0.311401
0.311434
0.311468
0.311501
0.311501
0.311535
0.311568
0.311602
0.311636
0.311636
0.311669
0.311703
0.311737
0.31177
0.31177
0.311804
0.311838
0.311872
0.311906
0.311906
0.31194
0.311974
0.312008
0.312042
0.312042
0.312076
0.31211
0.312144
0.312178
0.312178
0.312212
0.312246
0.31228
0.312315
0.312315
0.312349
0.312383
0.312418
0.312452
0.312452
0.312486
0.312521
0.312555
0.31259
0.31259
0.312624
0.312659
0.312694
0.312728
0.312728
0.312763
0.312798
0.312832
0.312867
0.312867
0.312902
0.312937
0.312971
0.313006
0.313006
0.313041
0.313076
0.313111
0.313146
0.313146
0.313181
0.313216
0.313251
0.313287
0.313287
0.313322
0.313357
0.313392
0.313427
0.313427
0.313463
0.313498
0.313533
0.313569
0.313569
0.313604
0.31364
0.313675
0.313711
0.313711
0.313746
0.313782
0.313817
0.313853
0.313853
0.313889
0.313924
0.31396
0.313996
0.313996
0.314032
0.314067
0.314103
0.314139
0.314139
0.314175
0.314211
0.314247
0.314283
0.314283
0.314319
0.314355
0.314391
0.314428
0.314428
0.314464
0.3145
0.314536
0.314572
0.314572
0.314609
0.314645
0.314681
0.314718
0.314718
0.314754
0.314791
0.314827
0.314864
0.314864
0.3149
0.314937
0.314973
0.31501
0.31501
0.315047
0.315084
0.31512
0.315157
0.315157
0.315194
0.315231
0.315268
0.315304
0.315304
0.315341
0.315378
0.315415
0.315452
0.315452
0.315489
0.315527
0.315564
0.315601
0.315601
0.315638
0.315675
0.315712
0.31575
0.31575
0.315787
0.315824
0.315862
0.315899
0.315899
0.315937
0.315974
0.316012
0.316049
0.316049
0.316087
0.316124
0.316162
0.3162
0.3162
0.316237
0.316275
0.316313
0.31635
0.31635
0.316388
0.316426
0.316464
0.316502
0.316502
0.31654
0.316578
0.316616
0.316654
0.316654
0.316692
0.31673
0.316768
0.316806
0.316806
0.316844
0.316883
0.316921
0.316959
0.316959
0.316998
0.317036
0.317074
0.317113
0.317113
0.317151
0.31719
0.317228
0.317267
0.317267
0.317305
0.317344
0.317382
0.317421
0.317421
0.31746
0.317499
0.317537
0.317576
0.317576
0.317615
0.317654
0.317693
0.317732
0.317732
0.31777
0.317809
0.317848
0.317888
0.317888
0.317927
0.317966
0.318005
0.318044
0.318044
0.318083
0.318122
0.318162
0.318201
0.318201
0.31824
0.31828
0.318319
0.318358
0.318358
0.318398
0.318437
0.318477
0.318516
0.318516
0.318556
0.318596
0.318635
0.318675
0.318675
0.318715
0.318754
0.318794
0.318834
0.318834
0.318874
0.318914
0.318953
0.318993
0.318993
0.319033
0.319073
0.319113
0.319153
0.319153
0.319193
0.319233
0.319274
0.319314
0.319314
0.319354
0.319394
0.319434
0.319475
0.319475
0.319515
0.319555
0.319596
0.319636
0.319636
0.319677
0.319717
0.319758
0.319798
0.319798
0.319839
0.319879
0.31992
0.319961
0.319961
0.320001
0.320042
0.320083
0.320124
0.320124
0.320165
0.320205
0.320246
0.320287
0.320287
0.320328
0.320369
0.32041
0.320451
0.320451
0.320492
0.320533
0.320575
0.320616
0.320616
0.320657
0.320698
0.320739
0.320781
0.320781
0.320822
0.320863
0.320905
0.320946
0.320946
0.320988
0.321029
0.321071
0.321112
0.321112
0.321154
0.321195
0.321237
0.321279
0.321279
0.32132
0.321362
0.321404
0.321446
0.321446
0.321487
0.321529
0.321571
0.321613
0.321613
0.321655
0.321697
0.321739
0.321781
0.321781
0.321823
0.321865
0.321907
0.32195
0.32195
0.321992
0.322034
0.322076
0.322119
0.322119
0.322161
0.322203
0.322246
0.322288
0.322288
0.322331
0.322373
0.322416
0.322458
0.322458
0.322501
0.322543
0.322586
0.322629
0.322629
0.322671
0.322714
0.322757
0.3228
0.3228
0.322842
0.322885
0.322928
0.322971
0.322971
0.323014
0.323057
0.3231
0.323143
0.323143
0.323186
0.323229
0.323272
0.323315
0.323315
0.323359
0.323402
0.323445
0.323488
0.323488
0.323532
0.323575
0.323619
0.323662
0.323662
0.323705
0.323749
0.323792
0.323836
0.323836
0.32388
0.323923
0.323967
0.32401
0.32401
0.324054
0.324098
0.324142
0.324185
0.324185
0.324229
0.324273
0.324317
0.324361
0.324361
0.324405
0.324449
0.324493
0.324537
0.324537
0.324581
0.324625
0.324669
0.324713
0.324713
0.324757
0.324802
0.324846
0.32489
0.32489
0.324935
0.324979
0.325023
0.325068
0.325068
0.325112
0.325157
0.325201
0.325246
0.325246
0.32529
0.325335
0.325379
0.325424
0.325424
0.325469
0.325514
0.325558
0.325603
0.325603
0.325648
0.325693
0.325738
0.325783
0.325783
0.325827
0.325872
0.325917
0.325963
0.325963
0.326008
0.326053
0.326098
0.326143
0.326143
0.326188
0.326233
0.326279
0.326324
0.326324
0.326369
0.326415
0.32646
0.326505
0.326505
0.326551
0.326596
0.326642
0.326687
0.326687
0.326733
0.326778
0.326824
0.32687
0.32687
0.326915
0.326961
0.327007
0.327053
0.327053
0.327098
0.327144
0.32719
0.327236
0.327236
0.327282
0.327328
0.327374
0.32742
0.32742
0.327466
0.327512
0.327558
0.327604
0.327604
0.327651
0.327697
0.327743
0.327789
0.327789
0.327836
0.327882
0.327928
0.327975
0.327975
0.328021
0.328068
0.328114
0.328161
0.328161
0.328207
0.328254
0.3283
0.328347
0.328347
0.328394
0.32844
0.328487
0.328534
0.328534
0.328581
0.328628
0.328674
0.328721
0.328721
0.328768
0.328815
0.328862
0.328909
0.328909
0.328956
0.329003
0.32905
0.329098
0.329098
0.329145
0.329192
0.329239
0.329287
0.329287
0.329334
0.329381
0.329428
0.329476
0.329476
0.329523
0.329571
0.329618
0.329666
0.329666
0.329713
0.329761
0.329808
0.329856
0.329856
0.329904
0.329951
0.329999
0.330047
0.330047
0.330095
0.330143
0.33019
0.330238
0.330238
0.330286
0.330334
0.330382
0.33043
0.33043
0.330478
0.330526
0.330574
0.330623
0.330623
0.330671
0.330719
0.330767
0.330815
0.330815
0.330864
0.330912
0.33096
0.331009
0.331009
0.331057
0.331106
0.331154
0.331202
0.331202
0.331251
0.3313
0.331348
0.331397
0.331397
0.331445
0.331494
0.331543
0.331592
0.331592
0.33164
0.331689
0.331738
0.331787
0.331787
0.331836
0.331885
0.331934
0.331983
0.331983
0.332032
0.332081
0.33213
0.332179
0.332179
0.332228
0.332277
0.332327
0.332376
0.332376
0.332425
0.332474
0.332524
0.332573
0.332573
0.332622
0.332672
0.332721
0.332771
0.332771
0.33282
0.33287
0.332919
0.332969
0.332969
0.333019
0.333068
0.333118
0.333168
0.333168
0.333218
0.333267
0.333317
0.333367
0.333367
0.333417
0.333467
0.333517
0.333567
0.333567
0.333617
0.333667
0.333717
0.333767
0.333767
0.333817
0.333867
0.333918
0.333968
0.333968
0.334018
0.334068
0.334119
0.334169
0.334169
0.334219
0.33427
0.33432
0.334371
0.334371
0.334421
0.334472
0.334522
0.334573
0.334573
0.334624
0.334674
0.334725
0.334776
0.334776
0.334826
0.334877
0.334928
0.334979
0.334979
0.33503
0.335081
0.335131
0.335182
0.335182
0.335233
0.335284
0.335335
0.335387
0.335387
0.335438
0.335489
0.33554
0.335591
0.335591
0.335642
0.335694
0.335745
0.335796
0.335796
0.335848
0.335899
0.335951
0.336002
0.336002
0.336053
0.336105
0.336157
0.336208
0.336208
0.33626
0.336311
0.336363
0.336415
0.336415
0.336466
0.336518
0.33657
0.336622
0.336622
0.336674
0.336726
0.336777
0.336829
0.336829
0.336881
0.336933
0.336985
0.337038
0.337038
0.33709
0.337142
0.337194
0.337246
0.337246
0.337298
0.337351
0.337403
0.337455
0.337455
0.337507
0.33756
0.337612
0.337665
0.337665
0.337717
0.33777
0.337822
0.337875
0.337875
0.337927
0.33798
0.338033
0.338085
0.338085
0.338138
0.338191
0.338243
0.338296
0.338296
0.338349
0.338402
0.338455
0.338508
0.338508
0.338561
0.338614
0.338667
0.33872
0.33872
0.338773
0.338826
0.338879
0.338932
0.338932
0.338985
0.339039
0.339092
0.339145
0.339145
0.339199
0.339252
0.339305
0.339359
0.339359
0.339412
0.339466
0.339519
0.339573
0.339573
0.339626
0.33968
0.339733
0.339787
0.339787
0.339841
0.339895
0.339948
0.340002
0.340002
0.340056
0.34011
0.340164
0.340217
0.340217
0.340271
0.340325
0.340379
0.340433
0.340433
0.340487
0.340542
0.340596
0.34065
0.34065
0.340704
0.340758
0.340812
0.340867
0.340867
0.340921
0.340975
0.34103
0.341084
0.341084
0.341138
0.341193
0.341247
0.341302
0.341302
0.341356
0.341411
0.341466
0.34152
0.34152
0.341575
0.34163
0.341684
0.341739
0.341739
0.341794
0.341849
0.341903
0.341958
0.341958
0.342013
0.342068
0.342123
0.342178
0.342178
0.342233
0.342288
0.342343
0.342398
0.342398
0.342454
0.342509
0.342564
0.342619
0.342619
0.342674
0.34273
0.342785
0.34284
0.34284
0.342896
0.342951
0.343007
0.343062
0.343062
0.343118
0.343173
0.343229
0.343284
0.343284
0.34334
0.343396
0.343451
0.343507
0.343507
0.343563
0.343619
0.343675
0.34373
0.34373
0.343786
0.343842
0.343898
0.343954
0.343954
0.34401
0.344066
0.344122
0.344178
0.344178
0.344234
0.344291
0.344347
0.344403
0.344403
0.344459
0.344515
0.344572
0.344628
0.344628
0.344684
0.344741
0.344797
0.344854
0.344854
0.34491
0.344967
0.345023
0.34508
0.34508
0.345136
0.345193
0.34525
0.345306
0.345306
0.345363
0.34542
0.345477
0.345533
0.345533
0.34559
0.345647
0.345704
0.345761
0.345761
0.345818
0.345875
0.345932
0.345989
0.345989
0.346046
0.346103
0.34616
0.346218
0.346218
0.346275
0.346332
0.346389
0.346447
0.346447
0.346504
0.346561
0.346619
0.346676
0.346676
0.346734
0.346791
0.346849
0.346906
0.346906
0.346964
0.347021
0.347079
0.347137
0.347137
0.347194
0.347252
0.34731
0.347368
0.347368
0.347425
0.347483
0.347541
0.347599
0.347599
0.347657
0.347715
0.347773
0.347831
0.347831
0.347889
0.347947
0.348005
0.348063
0.348063
0.348121
0.34818
0.348238
0.348296
0.348296
0.348354
0.348413
0.348471
0.34853
0.34853
0.348588
0.348646
0.348705
0.348763
0.348763
0.348822
0.34888
0.348939
0.348998
0.348998
0.349056
0.349115
0.349174
0.349233
0.349233
0.349291
0.34935
0.349409
0.349468
0.349468
0.349527
0.349586
0.349645
0.349704
0.349704
0.349763
0.349822
0.349881
0.34994
0.34994
0.349999
0.350058
0.350117
0.350177
0.350177
0.350236
0.350295
0.350354
0.350414
0.350414
0.350473
0.350533
0.350592
0.350652
0.350652
0.350711
0.350771
0.35083
0.35089
0.35089
0.350949
0.351009
0.351069
0.351128
0.351128
0.351188
0.351248
0.351308
0.351367
0.351367
0.351427
0.351487
0.351547
0.351607
0.351607
0.351667
0.351727
0.351787
0.351847
0.351847
0.351907
0.351967
0.352028
0.352088
0.352088
0.352148
0.352208
0.352269
0.352329
0.352329
0.352389
0.35245
0.35251
0.35257
0.35257
0.352631
0.352691
0.352752
0.352812
0.352812
0.352873
0.352934
0.352994
0.353055
0.353055
0.353116
0.353176
0.353237
0.353298
0.353298
0.353359
0.35342
0.35348
0.353541
0.353541
0.353602
0.353663
0.353724
0.353785
0.353785
0.353846
0.353907
0.353969
0.35403
0.35403
0.354091
0.354152
0.354213
0.354275
0.354275
0.354336
0.354397
0.354459
0.35452
0.35452
0.354581
0.354643
0.354704
0.354766
0.354766
0.354827
0.354889
0.354951
0.355012
0.355012
0.355074
0.355136
0.355197
0.355259
0.355259
0.355321
0.355383
0.355444
0.355506
0.355506
0.355568
0.35563
0.355692
0.355754
0.355754
0.355816
0.355878
0.35594
0.356002
0.356002
0.356064
0.356127
0.356189
0.356251
0.356251
0.356313
0.356376
0.356438
0.3565
0.3565
0.356563
0.356625
0.356687
0.35675
0.35675
0.356812
0.356875
0.356937
0.357
0.357
0.357063
0.357125
0.357188
0.357251
0.357251
0.357313
0.357376
0.357439
0.357502
0.357502
0.357565
0.357627
0.35769
0.357753
0.357753
0.357816
0.357879
0.357942
0.358005
0.358005
0.358068
0.358132
0.358195
0.358258
0.358258
0.358321
0.358384
0.358448
0.358511
0.358511
0.358574
0.358638
0.358701
0.358764
0.358764
0.358828
0.358891
0.358955
0.359018
0.359018
0.359082
0.359146
0.359209
0.359273
0.359273
0.359337
0.3594
0.359464
0.359528
0.359528
0.359592
0.359655
0.359719
0.359783
0.359783
0.359847
0.359911
0.359975
0.360039
0.360039
0.360103
0.360167
0.360231
0.360295
0.360295
0.360359
0.360424
0.360488
0.360552
0.360552
0.360616
0.360681
0.360745
0.360809
0.360809
0.360874
0.360938
0.361003
0.361067
0.361067
0.361132
0.361196
0.361261
0.361325
0.361325
0.36139
0.361455
0.361519
0.361584
0.361584
0.361649
0.361714
0.361778
0.361843
0.361843
0.361908
0.361973
0.362038
0.362103
0.362103
0.362168
0.362233
0.362298
0.362363
0.362363
0.362428
0.362493
0.362558
0.362624
0.362624
0.362689
0.362754
0.362819
0.362885
0.362885
0.36295
0.363015
0.363081
0.363146
0.363146
0.363212
0.363277
0.363343
0.363408
0.363408
0.363474
0.363539
0.363605
0.363671
0.363671
0.363736
0.363802
0.363868
0.363934
0.363934
0.364
0.364065
0.364131
0.364197
0.364197
0.364263
0.364329
0.364395
0.364461
0.364461
0.364527
0.364593
0.364659
0.364725
0.364725
0.364792
0.364858
0.364924
0.36499
0.36499
0.365057
0.365123
0.365189
0.365256
0.365256
0.365322
0.365388
0.365455
0.365521
0.365521
0.365588
0.365654
0.365721
0.365788
0.365788
0.365854
0.365921
0.365988
0.366054
0.366054
0.366121
0.366188
0.366255
0.366322
0.366322
0.366388
0.366455
0.366522
0.366589
0.366589
0.366656
0.366723
0.36679
0.366857
0.366857
0.366925
0.366992
0.367059
0.367126
0.367126
0.367193
0.36726
0.367328
0.367395
0.367395
0.367462
0.36753
0.367597
0.367665
0.367665
0.367732
0.3678
0.367867
0.367935
0.367935
0.368002
0.36807
0.368137
0.368205
0.368205
0.368273
0.368341
0.368408
0.368476
0.368476
0.368544
0.368612
0.36868
0.368748
0.368748
0.368815
0.368883
0.368951
0.369019
0.369019
0.369087
0.369156
0.369224
0.369292
0.369292
0.36936
0.369428
0.369496
0.369565
0.369565
0.369633
0.369701
0.36977
0.369838
0.369838
0.369906
0.369975
0.370043
0.370112
0.370112
0.37018
0.370249
0.370317
0.370386
0.370386
0.370455
0.370523
0.370592
0.370661
0.370661
0.370729
0.370798
0.370867
0.370936
0.370936
0.371005
0.371074
0.371143
0.371211
0.371211
0.37128
0.371349
0.371419
0.371488
0.371488
0.371557
0.371626
0.371695
0.371764
0.371764
0.371833
0.371903
0.371972
0.372041
0.372041
0.372111
0.37218
0.372249
0.372319
0.372319
0.372388
0.372458
0.372527
0.372597
0.372597
0.372666
0.372736
0.372805
0.372875
0.372875
0.372945
0.373015
0.373084
0.373154
0.373154
0.373224
0.373294
0.373364
0.373433
0.373433
0.373503
0.373573
0.373643
0.373713
0.373713
0.373783
0.373853
0.373923
0.373994
0.373994
0.374064
0.374134
0.374204
0.374274
0.374274
0.374345
0.374415
0.374485
0.374556
0.374556
0.374626
0.374696
0.374767
0.374837
0.374837
0.374908
0.374978
0.375049
0.375119
0.375119
0.37519
0.375261
0.375331
0.375402
0.375402
0.375473
0.375544
0.375614
0.375685
0.375685
0.375756
0.375827
0.375898
0.375969
0.375969
0.37604
0.376111
0.376182
0.376253
0.376253
0.376324
0.376395
0.376466
0.376537
0.376537
0.376608
0.37668
0.376751
0.376822
0.376822
0.376893
0.376965
0.377036
0.377108
0.377108
0.377179
0.37725
0.377322
0.377393
0.377393
0.377465
0.377537
0.377608
0.37768
0.37768
0.377751
0.377823
0.377895
0.377967
0.377967
0.378038
0.37811
0.378182
0.378254
0.378254
0.378326
0.378398
0.37847
0.378542
0.378542
0.378614
0.378686
0.378758
0.37883
0.37883
0.378902
0.378974
0.379046
0.379118
0.379118
0.379191
0.379263
0.379335
0.379407
0.379407
0.37948
0.379552
0.379625
0.379697
0.379697
0.37977
0.379842
0.379915
0.379987
0.379987
0.38006
0.380132
0.380205
0.380278
0.380278
0.38035
0.380423
0.380496
0.380569
0.380569
0.380641
0.380714
0.380787
0.38086
0.38086
0.380933
0.381006
0.381079
0.381152
0.381152
0.381225
0.381298
0.381371
0.381444
0.381444
0.381517
0.381591
0.381664
0.381737
0.381737
0.38181
0.381884
0.381957
0.38203
0.38203
0.382104
0.382177
0.38225
0.382324
0.382324
0.382397
0.382471
0.382545
0.382618
0.382618
0.382692
0.382765
0.382839
0.382913
0.382913
0.382986
0.38306
0.383134
0.383208
0.383208
0.383282
0.383356
0.383429
0.383503
0.383503
0.383577
0.383651
0.383725
0.383799
0.383799
0.383873
0.383948
0.384022
0.384096
0.384096
0.38417
0.384244
0.384319
0.384393
0.384393
0.384467
0.384541
0.384616
0.38469
0.38469
0.384765
0.384839
0.384914
0.384988
0.384988
0.385063
0.385137
0.385212
0.385286
0.385286
0.385361
0.385436
0.38551
0.385585
0.385585
0.38566
0.385735
0.385809
0.385884
0.385884
0.385959
0.386034
0.386109
0.386184
0.386184
0.386259
0.386334
0.386409
0.386484
0.386484
0.386559
0.386634
0.38671
0.386785
0.386785
0.38686
0.386935
0.38701
0.387086
0.387086
0.387161
0.387236
0.387312
0.387387
0.387387
0.387463
0.387538
0.387614
0.387689
0.387689
0.387765
0.38784
0.387916
0.387992
0.387992
0.388067
0.388143
0.388219
0.388295
0.388295
0.38837
0.388446
0.388522
0.388598
0.388598
0.388674
0.38875
0.388826
0.388902
0.388902
0.388978
0.389054
0.38913
0.389206
0.389206
0.389282
0.389358
0.389434
0.389511
0.389511
0.389587
0.389663
0.389739
0.389816
0.389816
0.389892
0.389968
0.390045
0.390121
0.390121
0.390198
0.390274
0.390351
0.390427
0.390427
0.390504
0.390581
0.390657
0.390734
0.390734
0.390811
0.390887
0.390964
0.391041
0.391041
0.391118
0.391194
0.391271
0.391348
0.391348
0.391425
0.391502
0.391579
0.391656
0.391656
0.391733
0.39181
0.391887
0.391964
0.391964
0.392042
0.392119
0.392196
0.392273
0.392273
0.39235
0.392428
0.392505
0.392582
0.392582
0.39266
0.392737
0.392815
0.392892
0.392892
0.39297
0.393047
0.393125
0.393202
0.393202
0.39328
0.393357
0.393435
0.393513
0.393513
0.393591
0.393668
0.393746
0.393824
0.393824
0.393902
0.39398
0.394057
0.394135
0.394135
0.394213
0.394291
0.394369
0.394447
0.394447
0.394525
0.394603
0.394681
0.39476
0.39476
0.394838
0.394916
0.394994
0.395072
0.395072
0.395151
0.395229
0.395307
0.395386
0.395386
0.395464
0.395543
0.395621
0.3957
0.3957
0.395778
0.395857
0.395935
0.396014
0.396014
0.396092
0.396171
0.39625
0.396328
0.396328
0.396407
0.396486
0.396565
0.396643
0.396643
0.396722
0.396801
0.39688
0.396959
0.396959
0.397038
0.397117
0.397196
0.397275
0.397275
0.397354
0.397433
0.397512
0.397591
0.397591
0.397671
0.39775
0.397829
0.397908
0.397908
0.397988
0.398067
0.398146
0.398226
0.398226
0.398305
0.398384
0.398464
0.398543
0.398543
0.398623
0.398702
0.398782
0.398862
0.398862
0.398941
0.399021
0.399101
0.39918
0.39918
0.39926
0.39934
0.39942
0.399499
0.399499
0.399579
0.399659
0.399739
0.399819
0.399819
0.399899
0.399979
0.400059
0.400139
0.400139
0.400219
0.400299
0.400379
0.40046
0.40046
0.40054
0.40062
0.4007
0.40078
0.40078
0.400861
0.400941
0.401021
0.401102
0.401102
0.401182
0.401263
0.401343
0.401424
0.401424
0.401504
0.401585
0.401665
0.401746
0.401746
0.401827
0.401907
0.401988
0.402069
0.402069
0.402149
0.40223
0.402311
0.402392
0.402392
0.402473
0.402554
0.402634
0.402715
0.402715
0.402796
0.402877
0.402958
0.403039
0.403039
0.403121
0.403202
0.403283
0.403364
0.403364
0.403445
0.403526
0.403608
0.403689
0.403689
0.40377
0.403851
0.403933
0.404014
0.404014
0.404096
0.404177
0.404259
0.40434
0.40434
0.404422
0.404503
0.404585
0.404666
0.404666
0.404748
0.40483
0.404911
0.404993
0.404993
0.405075
0.405157
0.405238
0.40532
0.40532
0.405402
0.405484
0.405566
0.405648
0.405648
0.40573
0.405812
0.405894
0.405976
0.405976
0.406058
0.40614
0.406222
0.406304
0.406304
0.406387
0.406469
0.406551
0.406633
0.406633
0.406716
0.406798
0.40688