<?xml version="1.0"?>
<VTKFile type="UnstructuredGrid" version="0.1" byte_order="LittleEndian">
<UnstructuredGrid>
<Piece NumberOfPoints="5000" NumberOfCells="4000">
<PointData Scalars="Reaction 0">
<DataArray type="Float32" Name="Reaction 0" format="ascii">
0.495394
0.495394
0.495394
0.495394
0.495394
0.495394
0.495395
0.495395
0.495395
0.495395
0.495395
0.495396
0.495396
0.495396
0.495397
0.495397
0.495397
0.495397
0.495398
0.495398
0.495398
0.495399
0.4954
0.4954
0.495401
0.495401
0.495402
0.495402
0.495403
0.495404
0.495404
0.495405
0.495405
0.495406
0.495407
0.495407
0.495408
0.495409
0.49541
0.495411
0.495411
0.495412
0.495414
0.495415
0.495416
0.495416
0.495417
0.495418
0.49542
0.495421
0.495421
0.495422
0.495424
0.495425
0.495427
0.495427
0.495428
0.49543
0.495431
0.495433
0.495433
0.495434
0.495436
0.495438
0.49544
0.49544
0.495441
0.495443
0.495445
0.495447
0.495447
0.495449
0.495451
0.495453
0.495455
0.495455
0.495457
0.495459
0.495461
0.495463
0.495463
0.495465
0.495467
0.49547
0.495472
0.495472
0.495474
0.495476
0.495479
0.495481
0.495481
0.495484
0.495486
0.495489
0.495491
0.495491
0.495494
0.495496
0.495499
0.495502
0.495502
0.495504
0.495507
0.49551
0.495513
0.495513
0.495515
0.495518
0.495521
0.495524
0.495524
0.495527
0.49553
0.495533
0.495536
0.495536
0.495539
0.495542
0.495546
0.495549
0.495549
0.495552
0.495555
0.495559
0.495562
0.495562
0.495565
0.495569
0.495572
0.495576
0.495576
0.495579
0.495583
0.495586
0.49559
0.49559
0.495594
0.495597
0.495601
0.495605
0.495605
0.495609
0.495612
0.495616
0.49562
0.49562
0.495624
0.495628
0.495632
0.495636
0.495636
0.49564
0.495644
0.495648
0.495652
0.495652
0.495656
0.495661
0.495665
0.495669
0.495669
0.495674
0.495678
0.495682
0.495687
0.495687
0.495691
0.495696
0.4957
0.495705
0.495705
0.495709
0.495714
0.495719
0.495723
0.495723
0.495728
0.495733
0.495737
0.495742
0.495742
0.495747
0.495752
0.495757
0.495762
0.495762
0.495767
0.495772
0.495777
0.495782
0.495782
0.495787
0.495792
0.495798
0.495803
0.495803
0.495808
0.495813
0.495819
0.495824
0.495824
0.495829
0.495835
0.49584
0.495846
0.495846
0.495851
0.495857
0.495862
0.495868
0.495868
0.495874
0.495879
0.495885
0.495891
0.495891
0.495897
0.495903
0.495908
0.495914
0.495914
0.49592
0.495926
0.495932
0.495938
0.495938
0.495944
0.49595
0.495956
0.495963
0.495963
0.495969
0.495975
0.495981
0.495988
0.495988
0.495994
0.496
0.496007
0.496013
0.496013
0.49602
0.496026
0.496033
0.496039
0.496039
0.496046
0.496052
0.496059
0.496066
0.496066
0.496073
0.496079
0.496086
0.496093
0.496093
0.4961
0.496107
0.496114
0.496121
0.496121
0.496128
0.496135
0.496142
0.496149
0.496149
0.496156
0.496163
0.49617
0.496178
0.496178
0.496185
0.496192
0.4962
0.496207
0.496207
0.496214
0.496222
0.496229
0.496237
0.496237
0.496244
0.496252
0.49626
0.496267
0.496267
0.496275
0.496283
0.49629
0.496298
0.496298
0.496306
0.496314
0.496322
0.49633
0.49633
0.496338
0.496346
0.496354
0.496362
0.496362
0.49637
0.496378
0.496386
0.496394
0.496394
0.496402
0.496411
0.496419
0.496427
0.496427
0.496436
0.496444
0.496452
0.496461
0.496461
0.496469
0.496478
0.496486
0.496495
0.496495
0.496504
0.496512
0.496521
0.49653
0.49653
0.496538
0.496547
0.496556
0.496565
0.496565
0.496574
0.496583
0.496592
0.496601
0.496601
0.49661
0.496619
0.496628
0.496637
0.496637
0.496646
0.496655
0.496665
0.496674
0.496674
0.496683
0.496693
0.496702
0.496711
0.496711
0.496721
0.49673
0.49674
0.496749
0.496749
0.496759
0.496768
0.496778
0.496788
0.496788
0.496797
0.496807
0.496817
0.496827
0.496827
0.496837
0.496846
0.496856
0.496866
0.496866
0.496876
0.496886
0.496896
0.496906
0.496906
0.496916
0.496927
0.496937
0.496947
0.496947
0.496957
0.496968
0.496978
0.496988
0.496988
0.496999
0.497009
0.497019
0.49703
0.49703
0.49704
0.497051
0.497062
0.497072
0.497072
0.497083
0.497093
0.497104
0.497115
0.497115
0.497126
0.497137
0.497147
0.497158
0.497158
0.497169
0.49718
0.497191
0.497202
0.497202
0.497213
0.497224
0.497235
0.497247
0.497247
0.497258
0.497269
0.49728
0.497292
0.497292
0.497303
0.497314
0.497326
0.497337
0.497337
0.497348
0.49736
0.497372
0.497383
0.497383
0.497395
0.497406
0.497418
0.49743
0.49743
0.497441
0.497453
0.497465
0.497477
0.497477
0.497489
0.497501
0.497512
0.497524
0.497524
0.497536
0.497549
0.497561
0.497573
0.497573
0.497585
0.497597
0.497609
0.497621
0.497621
0.497634
0.497646
0.497658
0.497671
0.497671
0.497683
0.497696
0.497708
0.497721
0.497721
0.497733
0.497746
0.497758
0.497771
0.497771
0.497784
0.497796
0.497809
0.497822
0.497822
0.497835
0.497848
0.49786
0.497873
0.497873
0.497886
0.497899
0.497912
0.497925
0.497925
0.497938
0.497952
0.497965
0.497978
0.497978
0.497991
0.498004
0.498018
0.498031
0.498031
0.498044
0.498058
0.498071
0.498085
0.498085
0.498098
0.498112
0.498125
0.498139
0.498139
0.498152
0.498166
0.49818
0.498193
0.498193
0.498207
0.498221
0.498235
0.498249
0.498249
0.498263
0.498277
0.498291
0.498305
0.498305
0.498319
0.498333
0.498347
0.498361
0.498361
0.498375
0.498389
0.498404
0.498418
0.498418
0.498432
0.498446
0.498461
0.498475
0.498475
0.49849
0.498504
0.498519
0.498533
0.498533
0.498548
0.498562
0.498577
0.498592
0.498592
0.498606
0.498621
0.498636
0.498651
0.498651
0.498666
0.498681
0.498695
0.49871
0.49871
0.498725
0.49874
0.498755
0.498771
0.498771
0.498786
0.498801
0.498816
0.498831
0.498831
0.498847
0.498862
0.498877
0.498893
0.498893
0.498908
0.498923
0.498939
0.498954
0.498954
0.49897
0.498985
0.499001
0.499017
0.499017
0.499032
0.499048
0.499064
0.49908
0.49908
0.499095
0.499111
0.499127
0.499143
0.499143
0.499159
0.499175
0.499191
0.499207
0.499207
0.499223
0.499239
0.499255
0.499271
0.499271
0.499288
0.499304
0.49932
0.499337
0.499337
0.499353
0.499369
0.499386
0.499402
0.499402
0.499419
0.499435
0.499452
0.499468
0.499468
0.499485
0.499502
0.499518
0.499535
0.499535
0.499552
0.499569
0.499585
0.499602
0.499602
0.499619
0.499636
0.499653
0.49967
0.49967
0.499687
0.499704
0.499721
0.499738
0.499738
0.499756
0.499773
0.49979
0.499807
0.499807
0.499825
0.499842
0.499859
0.499877
0.499877
0.499894
0.499912
0.499929
0.499947
0.499947
0.499964
0.499982
0.499999
0.500017
0.500017
0.500035
0.500053
0.50007
0.500088
0.500088
0.500106
0.500124
0.500142
0.50016
0.50016
0.500178
0.500196
0.500214
0.500232
0.500232
0.50025
0.500268
0.500286
0.500305
0.500305
0.500323
0.500341
0.50036
0.500378
0.500378
0.500396
0.500415
0.500433
0.500452
0.500452
0.50047
0.500489
0.500508
0.500526
0.500526
0.500545
0.500564
0.500582
0.500601
0.500601
0.50062
0.500639
0.500658
0.500677
0.500677
0.500695
0.500714
0.500733
0.500753
0.500753
0.500772
0.500791
0.50081
0.500829
0.500829
0.500848
0.500868
0.500887
0.500906
0.500906
0.500926
0.500945
0.500964
0.500984
0.500984
0.501003
0.501023
0.501042
0.501062
0.501062
0.501082
0.501101
0.501121
0.501141
0.501141
0.501161
0.50118
0.5012
0.50122
0.50122
0.50124
0.50126
0.50128
0.5013
0.5013
0.50132
0.50134
0.50136
0.50138
0.50138
0.5014
0.501421
0.501441
0.501461
0.501461
0.501482
0.501502
0.501522
0.501543
0.501543
0.501563
0.501584
0.501604
0.501625
0.501625
0.501645
0.501666
0.501687
0.501707
0.501707
0.501728
0.501749
0.50177
0.501791
0.501791
0.501811
0.501832
0.501853
0.501874
0.501874
0.501895
0.501916
0.501937
0.501958
0.501958
0.50198
0.502001
0.502022
0.502043
0.502043
0.502065
0.502086
0.502107
0.502129
0.502129
0.50215
0.502172
0.502193
0.502215
0.502215
0.502236
0.502258
0.502279
0.502301
0.502301
0.502323
0.502344
0.502366
0.502388
0.502388
0.50241
0.502432
0.502454
0.502476
0.502476
0.502498
0.50252
0.502542
0.502564
0.502564
0.502586
0.502608
0.50263
0.502652
0.502652
0.502675
0.502697
0.502719
0.502742
0.502742
0.502764
0.502786
0.502809
0.502831
0.502831
0.502854
0.502876
0.502899
0.502922
0.502922
0.502944
0.502967
0.50299
0.503013
0.503013
0.503035
0.503058
0.503081
0.503104
0.503104
0.503127
0.50315
0.503173
0.503196
0.503196
0.503219
0.503242
0.503265
0.503289
0.503289
0.503312
0.503335
0.503358
0.503382
0.503382
0.503405
0.503428
0.503452
0.503475
0.503475
0.503499
0.503522
0.503546
0.503569
0.503569
0.503593
0.503617
0.50364
0.503664
0.503664
0.503688
0.503712
0.503736
0.50376
0.50376
0.503783
0.503807
0.503831
0.503855
0.503855
0.503879
0.503904
0.503928
0.503952
0.503952
0.503976
0.504
0.504025
0.504049
0.504049
0.504073
0.504098
0.504122
0.504146
0.504146
0.504171
0.504195
0.50422
0.504244
0.504244
0.504269
0.504294
0.504318
0.504343
0.504343
0.504368
0.504393
0.504417
0.504442
0.504442
0.504467
0.504492
0.504517
0.504542
0.504542
0.504567
0.504592
0.504617
0.504642
0.504642
0.504668
0.504693
0.504718
0.504743
0.504743
0.504769
0.504794
0.504819
0.504845
0.504845
0.50487
0.504896
0.504921
0.504947
0.504947
0.504972
0.504998
0.505024
0.505049
0.505049
0.505075
0.505101
0.505127
0.505152
0.505152
0.505178
0.505204
0.50523
0.505256
0.505256
0.505282
0.505308
0.505334
0.50536
0.50536
0.505386
0.505413
0.505439
0.505465
0.505465
0.505491
0.505518
0.505544
0.50557
0.50557
0.505597
0.505623
0.50565
0.505676
0.505676
0.505703
0.50573
0.505756
0.505783
0.505783
0.50581
0.505836
0.505863
0.50589
0.50589
0.505917
0.505944
0.50597
0.505997
0.505997
0.506024
0.506051
0.506078
0.506106
0.506106
0.506133
0.50616
0.506187
0.506214
0.506214
0.506242
0.506269
0.506296
0.506324
0.506324
0.506351
0.506378
0.506406
0.506433
0.506433
0.506461
0.506488
0.506516
0.506544
0.506544
0.506571
0.506599
0.506627
0.506655
0.506655
0.506683
0.50671
0.506738
0.506766
0.506766
0.506794
0.506822
0.50685
0.506878
0.506878
0.506906
0.506935
0.506963
0.506991
0.506991
0.507019
0.507047
0.507076
0.507104
0.507104
0.507133
0.507161
0.507189
0.507218
0.507218
0.507246
0.507275
0.507304
0.507332
0.507332
0.507361
0.50739
0.507418
0.507447
0.507447
0.507476
0.507505
0.507534
0.507563
0.507563
0.507592
0.507621
0.50765
0.507679
0.507679
0.507708
0.507737
0.507766
0.507795
0.507795
0.507824
0.507854
0.507883
0.507912
0.507912
0.507942
0.507971
0.508001
0.50803
0.50803
0.50806
0.508089
0.508119
0.508148
0.508148
0.508178
0.508208
0.508237
0.508267
0.508267
0.508297
0.508327
0.508357
0.508387
0.508387
0.508417
0.508446
0.508477
0.508507
0.508507
0.508537
0.508567
0.508597
0.508627
0.508627
0.508657
0.508688
0.508718
0.508748
0.508748
0.508779
0.508809
0.508839
0.50887
0.50887
0.5089
0.508931
0.508961
0.508992
0.508992
0.509023
0.509053
0.509084
0.509115
0.509115
0.509146
0.509177
0.509207
0.509238
0.509238
0.509269
0.5093
0.509331
0.509362
0.509362
0.509393
0.509424
0.509456
0.509487
0.509487
0.509518
0.509549
0.509581
0.509612
0.509612
0.509643
0.509675
0.509706
0.509737
0.509737
0.509769
0.509801
0.509832
0.509864
0.509864
0.509895
0.509927
0.509959
0.50999
0.50999
0.510022
0.510054
0.510086
0.510118
0.510118
0.51015
0.510182
0.510214
0.510246
0.510246
0.510278
0.51031
0.510342
0.510374
0.510374
0.510406
0.510439
0.510471
0.510503
0.510503
0.510536
0.510568
0.510601
0.510633
0.510633
0.510665
0.510698
0.510731
0.510763
0.510763
0.510796
0.510828
0.510861
0.510894
0.510894
0.510927
0.51096
0.510992
0.511025
0.511025
0.511058
0.511091
0.511124
0.511157
0.511157
0.51119
0.511223
0.511257
0.51129
0.51129
0.511323
0.511356
0.511389
0.511423
0.511423
0.511456
0.51149
0.511523
0.511556
0.511556
0.51159
0.511623
0.511657
0.511691
0.511691
0.511724
0.511758
0.511792
0.511825
0.511825
0.511859
0.511893
0.511927
0.511961
0.511961
0.511995
0.512029
0.512063
0.512097
0.512097
0.512131
0.512165
0.512199
0.512233
0.512233
0.512267
0.512302
0.512336
0.51237
0.51237
0.512405
0.512439
0.512474
0.512508
0.512508
0.512542
0.512577
0.512612
0.512646
0.512646
0.512681
0.512716
0.51275
0.512785
0.512785
0.51282
0.512855
0.51289
0.512924
0.512924
0.512959
0.512994
0.513029
0.513064
0.513064
0.513099
0.513135
0.51317
0.513205
0.513205
0.51324
0.513275
0.513311
0.513346
0.513346
0.513381
0.513417
0.513452
0.513488
0.513488
0.513523
0.513559
0.513594
0.51363
0.51363
0.513666
0.513701
0.513737
0.513773
0.513773
0.513809
0.513845
0.51388
0.513916
0.513916
0.513952
0.513988
0.514024
0.51406
0.51406
0.514096
0.514133
0.514169
0.514205
0.514205
0.514241
0.514277
0.514314
0.51435
0.51435
0.514386
0.514423
0.514459
0.514496
0.514496
0.514532
0.514569
0.514605
0.514642
0.514642
0.514679
0.514716
0.514752
0.514789
0.514789
0.514826
0.514863
0.5149
0.514937
0.514937
0.514973
0.51501
0.515048
0.515085
0.515085
0.515122
0.515159
0.515196
0.515233
0.515233
0.515271
0.515308
0.515345
0.515382
0.515382
0.51542
0.515457
0.515495
0.515532
0.515532
0.51557
0.515607
0.515645
0.515683
0.515683
0.51572
0.515758
0.515796
0.515834
0.515834
0.515872
0.515909
0.515947
0.515985
0.515985
0.516023
0.516061
0.516099
0.516137
0.516137
0.516176
0.516214
0.516252
0.51629
0.51629
0.516328
0.516367
0.516405
0.516443
0.516443
0.516482
0.51652
0.516559
0.516597
0.516597
0.516636
0.516675
0.516713
0.516752
0.516752
0.516791
0.516829
0.516868
0.516907
0.516907
0.516946
0.516985
0.517024
0.517063
0.517063
0.517102
0.517141
0.51718
0.517219
0.517219
0.517258
0.517297
0.517336
0.517376
0.517376
0.517415
0.517454
0.517494
0.517533
0.517533
0.517572
0.517612
0.517651
0.517691
0.517691
0.517731
0.51777
0.51781
0.51785
0.51785
0.517889
0.517929
0.517969
0.518009
0.518009
0.518049
0.518089
0.518129
0.518169
0.518169
0.518209
0.518249
0.518289
0.518329
0.518329
0.518369
0.518409
0.51845
0.51849
0.51849
0.51853
0.518571
0.518611
0.518651
0.518651
0.518692
0.518732
0.518773
0.518814
0.518814
0.518854
0.518895
0.518936
0.518976
0.518976
0.519017
0.519058
0.519099
0.51914
0.51914
0.51918
0.519221
0.519262
0.519303
0.519303
0.519345
0.519386
0.519427
0.519468
0.519468
0.519509
0.51955
0.519592
0.519633
0.519633
0.519674
0.519716
0.519757
0.519799
0.519799
0.51984
0.519882
0.519923
0.519965
0.519965
0.520007
0.520048
0.52009
0.520132
0.520132
0.520174
0.520216
0.520257
0.520299
0.520299
0.520341
0.520383
0.520425
0.520467
0.520467
0.520509
0.520552
0.520594
0.520636
0.520636
0.520678
0.520721
0.520763
0.520805
0.520805
0.520848
0.52089
0.520933
0.520975
0.520975
0.521018
0.52106
0.521103
0.521146
0.521146
0.521188
0.521231
0.521274
0.521317
0.521317
0.521359
0.521402
0.521445
0.521488
0.521488
0.521531
0.521574
0.521617
0.52166
0.52166
0.521704
0.521747
0.52179
0.521833
0.521833
0.521876
0.52192
0.521963
0.522007
0.522007
0.52205
0.522094
0.522137
0.522181
0.522181
0.522224
0.522268
0.522312
0.522355
0.522355
0.522399
0.522443
0.522487
0.52253
0.52253
0.522574
0.522618
0.522662
0.522706
0.522706
0.52275
0.522794
0.522839
0.522883
0.522883
0.522927
0.522971
0.523015
0.52306
0.52306
0.523104
0.523148
0.523193
0.523237
0.523237
0.523282
0.523326
0.523371
0.523416
0.523416
0.52346
0.523505
0.52355
0.523594
0.523594
0.523639
0.523684
0.523729
0.523774
0.523774
0.523819
0.523864
0.523909
0.523954
0.523954
0.523999
0.524044
0.524089
0.524134
0.524134
0.52418
0.524225
0.52427
0.524316
0.524316
0.524361
0.524406
0.524452
0.524497
0.524497
0.524543
0.524589
0.524634
0.52468
0.52468
0.524726
0.524771
0.524817
0.524863
0.524863
0.524909
0.524955
0.525001
0.525047
0.525047
0.525093
0.525139
0.525185
0.525231
0.525231
0.525277
0.525323
0.525369
0.525416
0.525416
0.525462
0.525508
0.525555
0.525601
0.525601
0.525648
0.525694
0.525741
0.525787
0.525787
0.525834
0.52588
0.525927
0.525974
0.525974
0.526021
0.526067
0.526114
0.526161
0.526161
0.526208
0.526255
0.526302
0.526349
0.526349
0.526396
0.526443
0.52649
0.526538
0.526538
0.526585
0.526632
0.526679
0.526727
0.526727
0.526774
0.526822
0.526869
0.526916
0.526916
0.526964
0.527012
0.527059
0.527107
0.527107
0.527154
0.527202
0.52725
0.527298
0.527298
0.527346
0.527393
0.527441
0.527489
0.527489
0.527537
0.527585
0.527633
0.527681
0.527681
0.52773
0.527778
0.527826
0.527874
0.527874
0.527923
0.527971
0.528019
0.528068
0.528068
0.528116
0.528165
0.528213
0.528262
0.528262
0.52831
0.528359
0.528408
0.528456
0.528456
0.528505
0.528554
0.528603
0.528652
0.528652
0.5287
0.528749
0.528798
0.528847
0.528847
0.528896
0.528946
0.528995
0.529044
0.529044
0.529093
0.529142
0.529192
0.529241
0.529241
0.52929
0.52934
0.529389
0.529439
0.529439
0.529488
0.529538
0.529587
0.529637
0.529637
0.529687
0.529736
0.529786
0.529836
0.529836
0.529886
0.529936
0.529986
0.530035
0.530035
0.530085
0.530135
0.530186
0.530236
0.530236
0.530286
0.530336
0.530386
0.530436
0.530436
0.530487
0.530537
0.530587
0.530638
0.530638
0.530688
0.530739
0.530789
0.53084
0.53084
0.53089
0.530941
0.530992
0.531043
0.531043
0.531093
0.531144
0.531195
0.531246
0.531246
0.531297
0.531348
0.531399
0.53145
0.53145
0.531501
0.531552
0.531603
0.531654
0.531654
0.531705
0.531757
0.531808
0.531859
0.531859
0.531911
0.531962
0.532014
0.532065
0.532065
0.532117
0.532168
0.53222
0.532272
0.532272
0.532323
0.532375
0.532427
0.532479
0.532479
0.53253
0.532582
0.532634
0.532686
0.532686
0.532738
0.53279
0.532842
0.532894
0.532894
0.532947
0.532999
0.533051
0.533103
0.533103
0.533156
0.533208
0.53326
0.533313
0.533313
0.533365
0.533418
0.53347
0.533523
0.533523
0.533576
0.533628
0.533681
0.533734
0.533734
0.533787
0.533839
0.533892
0.533945
0.533945
0.533998
0.534051
0.534104
0.534157
0.534157
0.53421
0.534263
0.534317
0.53437
0.53437
0.534423
0.534476
0.53453
0.534583
0.534583
0.534637
0.53469
0.534743
0.534797
0.534797
0.534851
0.534904
0.534958
0.535012
0.535012
0.535065
0.535119
0.535173
0.535227
0.535227
0.535281
0.535335
0.535389
0.535443
0.535443
0.535497
0.535551
0.535605
0.535659
0.535659
0.535713
0.535767
0.535822
0.535876
0.535876
0.53593
0.535985
0.536039
0.536094
0.536094
0.536148
0.536203
0.536258
0.536312
0.536312
0.536367
0.536422
0.536476
0.536531
0.536531
0.536586
0.536641
0.536696
0.536751
0.536751
0.536806
0.536861
0.536916
0.536971
0.536971
0.537026
0.537081
0.537137
0.537192
0.537192
0.537247
0.537303
0.537358
0.537413
0.537413
0.537469
0.537524
0.53758
0.537636
0.537636
0.537691
0.537747
0.537803
0.537858
0.537858
0.537914
0.53797
0.538026
0.538082
0.538082
0.538138
0.538194
0.53825
0.538306
0.538306
0.538362
0.538418
0.538474
0.538531
0.538531
0.538587
0.538643
0.5387
0.538756
0.538756
0.538812
0.538869
0.538925
0.538982
0.538982
0.539039
0.539095
0.539152
0.539209
0.539209
0.539265
0.539322
0.539379
0.539436
0.539436
0.539493
0.53955
0.539607
0.539664
0.539664
0.539721
0.539778
0.539835
0.539892
0.539892
0.53995
0.540007
0.540064
0.540122
0.540122
0.540179
0.540237
0.540294
0.540352
0.540352
0.540409
0.540467
0.540524
0.540582
0.540582
0.54064
0.540698
0.540755
0.540813
0.540813
0.540871
0.540929
0.540987
0.541045
0.541045
0.541103
0.541161
0.541219
0.541277
0.541277
0.541336
0.541394
0.541452
0.541511
0.541511
0.541569
0.541627
0.541686
0.541744
0.541744
0.541803
0.541861
0.54192
0.541979
0.541979
0.542037
0.542096
0.542155
0.542214
0.542214
0.542273
0.542332
0.542391
0.54245
0.54245
0.542509
0.542568
0.542627
0.542686
0.542686
0.542745
0.542804
0.542864
0.542923
0.542923
0.542982
0.543042
0.543101
0.543161
0.543161
0.54322
0.54328
0.543339
0.543399
0.543399
0.543459
0.543518
0.543578
0.543638
0.543638
0.543698
0.543758
0.543817
0.543877
0.543877
0.543937
0.543998
0.544058
0.544118
0.544118
0.544178
0.544238
0.544298
0.544359
0.544359
0.544419
0.544479
0.54454
0.5446
0.5446
0.544661
0.544721
0.544782
0.544843
0.544843
0.544903
0.544964
0.545025
0.545085
0.545085
0.545146
0.545207
0.545268
0.545329
0.545329
0.54539
0.545451
0.545512
0.545573
0.545573
0.545634
0.545696
0.545757
0.545818
0.545818
0.545879
0.545941
0.546002
0.546064
0.546064
0.546125
0.546187
0.546248
0.54631
0.54631
0.546372
0.546433
0.546495
0.546557
0.546557
0.546619
0.54668
0.546742
0.546804
0.546804
0.546866
0.546928
0.54699
0.547052
0.547052
0.547115
0.547177
0.547239
0.547301
0.547301
0.547364
0.547426
0.547488
0.547551
0.547551
0.547613
0.547676
0.547738
0.547801
0.547801
0.547864
0.547926
0.547989
0.548052
0.548052
0.548115
0.548178
0.54824
0.548303
0.548303
0.548366
0.548429
0.548493
0.548556
0.548556
0.548619
0.548682
0.548745
0.548809
0.548809
0.548872
0.548935
0.548999
0.549062
0.549062
0.549126
0.549189
0.549253
0.549316
0.549316
0.54938
0.549444
0.549507
0.549571
0.549571
0.549635
0.549699
0.549763
0.549827
0.549827
0.549891
0.549955
0.550019
0.550083
0.550083
0.550147
0.550211
0.550275
0.55034
0.55034
0.550404
0.550468
0.550533
0.550597
0.550597
0.550662
0.550726
0.550791
0.550856
0.550856
0.55092
0.550985
0.55105
0.551114
0.551114
0.551179
0.551244
0.551309
0.551374
0.551374
0.551439
0.551504
0.551569
0.551634
0.551634
0.5517
0.551765
0.55183
0.551895
0.551895
0.551961
0.552026
0.552091
0.552157
0.552157
0.552222
0.552288
0.552354
0.552419
0.552419
0.552485
0.552551
0.552616
0.552682
0.552682
0.552748
0.552814
0.55288
0.552946
0.552946
0.553012
0.553078
0.553144
0.55321
0.55321
0.553276
0.553343
0.553409
0.553475
0.553475
0.553542
0.553608
0.553674
0.553741
0.553741
0.553807
0.553874
0.553941
0.554007
0.554007
0.554074
0.554141
0.554208
0.554274
0.554274
0.554341
0.554408
0.554475
0.554542
0.554542
0.554609
0.554676
0.554743
0.554811
0.554811
0.554878
0.554945
0.555012
0.55508
0.55508
0.555147
0.555215
0.555282
0.55535
0.55535
0.555417
0.555485
0.555552
0.55562
0.55562
0.555688
0.555756
0.555823
0.555891
0.555891
0.555959
0.556027
0.556095
0.556163
0.556163
0.556231
0.556299
0.556368
0.556436
0.556436
0.556504
0.556572
0.556641
0.556709
0.556709
0.556777
0.556846
0.556914
0.556983
0.556983
0.557052
0.55712
0.557189
0.557258
0.557258
0.557326
0.557395
0.557464
0.557533
0.557533
0.557602
0.557671
0.55774
0.557809
0.557809
0.557878
0.557947
0.558017
0.558086
0.558086
0.558155
0.558224
0.558294
0.558363
0.558363
0.558433
0.558502
0.558572
0.558641
0.558641
0.558711
0.558781
0.55885
0.55892
0.55892
0.55899
0.55906
0.55913
0.5592
0.5592
0.55927
0.55934
0.55941
0.55948
0.55948
0.55955
0.55962
0.559691
0.559761
0.559761
0.559831
0.559902
0.559972
0.560041
0.560041
0.560109
0.560177
0.560245
0.560313
0.560313
0.560381
0.560449
0.560517
0.560585
0.560585
0.560654
0.560722
0.56079
0.560859
0.560859
0.560927
0.560995
0.561064
0.561132
0.561132
0.561201
0.561269
0.561337
0.561404
0.561404
0.56147
0.561535
0.561601
0.561666
0.561666
0.561731
0.561797
0.561863
0.561928
0.561928
0.561994
0.56206
0.562125
0.562191
0.562191
0.562257
0.562323
0.562388
0.562454
0.562454
0.56252
0.562586
0.56265
0.562714
0.562714
0.562777
0.56284
0.562902
0.562965
0.562965
0.563028
0.56309
0.563153
0.563216
0.563216
0.563279
0.563342
0.563404
0.563467
0.563467
0.56353
0.563593
0.563656
0.563719
0.563719
0.563782
0.563844
0.563905
0.563966
0.563966
0.564026
0.564086
0.564146
0.564205
0.564205
0.564265
0.564325
0.564385
0.564445
0.564445
0.564505
0.564565
0.564625
0.564685
0.564685
0.564746
0.564806
0.564866
0.564926
0.564926
0.564985
0.565044
0.565102
0.565159
0.565159
0.565216
0.565273
0.56533
0.565388
0.565388
0.565445
0.565502
0.565559
0.565616
0.565616
0.565673
0.565731
0.565788
0.565845
0.565845
0.565903
0.56596
0.566017
0.566074
0.566074
0.56613
0.566185
0.56624
0.566294
0.566294
0.566349
0.566403
0.566458
0.566512
0.566512
0.566567
0.566621
0.566676
0.56673
0.56673
0.566785
0.566839
0.566894
0.566949
0.566949
0.567003
0.567057
0.567111
0.567165
0.567165
0.567217
0.56727
0.567322
0.567374
0.567374
0.567425
0.567477
0.567529
0.567581
0.567581
0.567633
0.567685
0.567737
0.567789
0.567789
0.567841
0.567893
0.567945
0.567997
0.567997
0.568048
0.568099
0.56815
0.5682
0.5682
0.56825
0.568299
0.568349
0.568398
0.568398
0.568448
0.568497
0.568546
0.568596
0.568596
0.568645
0.568695
0.568744
0.568794
0.568794
0.568843
0.568893
0.568942
0.568991
0.568991
0.569039
0.569087
0.569135
0.569182
0.569182
0.569229
0.569276
0.569323
0.56937
0.56937
0.569417
0.569464
0.569512
0.569559
0.569559
0.569606
0.569653
0.5697
0.569747
0.569747
0.569794
0.56984
0.569887
0.569933
0.569933
0.569978
0.570023
0.570068
0.570113
0.570113
0.570158
0.570203
0.570247
0.570292
0.570292
0.570337
0.570382
0.570426
0.570471
0.570471
0.570516
0.570561
0.570605
0.57065
0.57065
0.570694
0.570738
0.570781
0.570824
0.570824
0.570867
0.57091
0.570952
0.570995
0.570995
0.571037
0.57108
0.571123
0.571165
0.571165
0.571208
0.57125
0.571293
0.571335
0.571335
0.571378
0.57142
0.571462
0.571504
0.571504
0.571545
0.571586
0.571627
0.571668
0.571668
0.571708
0.571749
0.571789
0.57183
0.57183
0.57187
0.571911
0.571951
0.571992
0.571992
0.572032
0.572072
0.572113
0.572153
0.572153
0.572193
0.572233
0.572272
0.572311
0.572311
0.57235
0.572388
0.572427
0.572465
0.572465
0.572504
0.572542
0.572581
0.572619
0.572619
0.572658
0.572696
0.572735
0.572773
0.572773
0.572811
0.57285
0.572887
0.572925
0.572925
0.572962
0.573
0.573037
0.573073
0.573073
0.57311
0.573146
0.573183
0.57322
0.57322
0.573256
0.573293
0.573329
0.573366
0.573366
0.573403
0.573439
0.573475
0.573511
0.573511
0.573547
0.573583
0.573619
0.573654
0.573654
0.573689
0.573724
0.573759
0.573793
0.573793
0.573828
0.573863
0.573898
0.573932
0.573932
0.573967
0.574002
0.574037
0.574071
0.574071
0.574106
0.57414
0.574174
0.574208
0.574208
0.574241
0.574275
0.574308
0.574341
0.574341
0.574374
0.574407
0.57444
0.574474
0.574474
0.574507
0.57454
0.574573
0.574606
0.574606
0.574639
0.574671
0.574704
0.574736
0.574736
0.574769
0.574801
0.574833
0.574864
0.574864
0.574896
0.574927
0.574959
0.57499
0.57499
0.575021
0.575053
0.575084
0.575116
0.575116
0.575147
0.575178
0.575209
0.575241
0.575241
0.575271
0.575302
0.575333
0.575363
0.575363
0.575393
0.575423
0.575453
0.575483
0.575483
0.575513
0.575543
0.575573
0.575602
0.575602
0.575632
0.575662
0.575692
0.575721
0.575721
0.575751
0.57578
0.575809
0.575838
0.575838
0.575867
0.575896
0.575925
0.575953
0.575953
0.575981
0.57601
0.576038
0.576067
0.576067
0.576095
0.576123
0.576152
0.57618
0.57618
0.576208
0.576236
0.576264
0.576292
0.576292
0.576319
0.576347
0.576374
0.576401
0.576401
0.576428
0.576455
0.576482
0.576509
0.576509
0.576536
0.576563
0.57659
0.576617
0.576617
0.576644
0.57667
0.576697
0.576724
0.576724
0.57675
0.576776
0.576802
0.576828
0.576828
0.576854
0.57688
0.576905
0.576931
0.576931
0.576957
0.576982
0.577008
0.577033
0.577033
0.577059
0.577084
0.57711
0.577135
0.577135
0.57716
0.577185
0.57721
0.577235
0.577235
0.57726
0.577284
0.577309
0.577333
0.577333
0.577357
0.577382
0.577406
0.57743
0.57743
0.577455
0.577479
0.577503
0.577527
0.577527
0.577551
0.577575
0.577599
0.577622
0.577622
0.577646
0.577669
0.577693
0.577716
0.577716
0.577739
0.577762
0.577785
0.577808
0.577808
0.577832
0.577855
0.577878
0.577901
0.577901
0.577923
0.577946
0.577969
0.577991
0.577991
0.578014
0.578036
0.578058
0.57808
0.57808
0.578102
0.578125
0.578147
0.578169
0.578169
0.578191
0.578212
0.578234
0.578256
0.578256
0.578278
0.5783
0.578321
0.578343
0.578343
0.578364
0.578385
0.578406
0.578428
0.578428
0.578449
0.57847
0.57849
0.578511
0.578511
0.578532
0.578553
0.578574
0.578595
0.578595
0.578616
0.578636
0.578657
0.578677
0.578677
0.578698
0.578718
0.578738
0.578758
0.578758
0.578778
0.578798
0.578818
0.578838
0.578838
0.578858
0.578878
0.578897
0.578917
0.578917
0.578937
0.578957
0.578976
0.578996
0.578996
0.579015
0.579034
0.579053
0.579073
0.579073
0.579092
0.579111
0.57913
0.579149
0.579149
0.579168
0.579186
0.579205
0.579224
0.579224
0.579243
0.579262
0.57928
0.579299
0.579299
0.579317
0.579336
0.579354
0.579372
0.579372
0.57939
0.579408
0.579426
0.579444
0.579444
0.579462
0.57948
0.579498
0.579516
0.579516
0.579534
0.579552
0.57957
0.579587
0.579587
0.579605
0.579622
0.57964
0.579657
0.579657
0.579674
0.579692
0.579709
0.579726
0.579726
0.579743
0.57976
0.579777
0.579794
0.579794
0.579811
0.579828
0.579845
0.579862
0.579862
0.579879
0.579895
0.579912
0.579928
0.579928
0.579945
0.579961
0.579978
0.579994
0.579994
0.58001
0.580027
0.580043
0.580059
0.580059
0.580075
0.580091
0.580107
0.580123
0.580123
0.580139
0.580155
0.580171
0.580187
0.580187
0.580202
0.580218
0.580233
0.580249
0.580249
0.580265
0.58028
0.580296
0.580311
0.580311
0.580326
0.580342
0.580357
0.580372
0.580372
0.580387
0.580402
0.580417
0.580432
0.580432
0.580447
0.580462
0.580477
0.580492
0.580492
0.580507
0.580521
0.580536
0.580551
0.580551
0.580565
0.58058
0.580595
0.580609
0.580609
0.580623
0.580638
0.580652
0.580666
0.580666
0.580681
0.580695
0.580709
0.580723
0.580723
0.580737
0.580751
0.580765
0.580779
0.580779
0.580793
0.580807
0.580821
0.580835
0.580835
0.580848
0.580862
0.580876
0.580889
0.580889
0.580903
0.580916
0.58093
0.580943
0.580943
0.580957
0.58097
0.580983
0.580997
0.580997
0.58101
0.581023
0.581036
0.581049
0.581049
0.581063
0.581076
0.581088
0.581101
0.581101
0.581114
0.581127
0.58114
0.581153
0.581153
0.581166
0.581178
0.581191
0.581204
0.581204
0.581216
0.581229
0.581242
0.581254
0.581254
0.581266
0.581279
0.581291
0.581304
0.581304
0.581316
0.581328
0.58134
0.581353
0.581353
0.581365
0.581377
0.581389
0.581401
0.581401
0.581413
0.581425
0.581437
0.581449
0.581449
0.581461
0.581473
0.581484
0.581496
0.581496
0.581508
0.58152
0.581531
0.581543
0.581543
0.581555
0.581566
0.581578
0.581589
0.581589
0.581601
0.581612
0.581623
0.581635
0.581635
0.581646
0.581657
0.581669
0.58168
0.58168
0.581691
0.581702
0.581713
0.581724
0.581724
0.581736
0.581747
0.581758
0.581769
0.581769
0.581779
0.58179
0.581801
0.581812
0.581812
0.581823
0.581834
0.581844
0.581855
0.581855
0.581866
0.581876
0.581887
0.581898
0.581898
0.581908
0.581919
0.581929
0.58194
0.58194
0.58195
0.58196
0.581971
0.581981
0.581981
0.581991
0.582002
0.582012
0.582022
0.582022
0.582032
0.582042
0.582052
0.582063
0.582063
0.582073
0.582083
0.582093
0.582103
0.582103
0.582113
0.582122
0.582132
0.582142
0.582142
0.582152
0.582162
0.582172
0.582181
0.582181
0.582191
0.582201
0.582211
0.58222
0.58222
0.58223
0.582239
0.582249
0.582258
0.582258
0.582268
0.582277
0.582287
0.582296
0.582296
0.582306
0.582315
0.582324
0.582334
0.582334
0.582343
0.582352
0.582361
0.582371
0.582371
0.58238
0.582389
0.582398
0.582407
0.582407
0.582416
0.582425
0.582434
0.582443
0.582443
0.582452
0.582461
0.58247
0.582479
0.582479
0.582488
0.582497
0.582506
0.582514
0.582514
0.582523
0.582532
0.582541
0.582549
0.582549
0.582558
0.582567
0.582575
0.582584
0.582584
0.582592
0.582601
0.58261
0.582618
0.582618
0.582627
0.582635
0.582643
0.582652
0.582652
0.58266
0.582669
0.582677
0.582685
0.582685
0.582694
0.582702
0.58271
0.582718
0.582718
0.582727
0.582735
0.582743
0.582751
0.582751