<?xml version="1.0"?>
<VTKFile type="UnstructuredGrid" version="0.1" byte_order="LittleEndian">
<UnstructuredGrid>
<Piece NumberOfPoints="5000" NumberOfCells="4000">
<PointData Scalars="Reaction 0">
<DataArray type="Float32" Name="Reaction 0" format="ascii">
0.421798
0.421798
0.421798
0.421798
0.421798
0.421798
0.421798
0.421798
0.421799
0.421799
0.421799
0.421799
0.421799
0.4218
0.4218
0.4218
0.4218
0.421801
0.421801
0.421801
0.421801
0.421802
0.421802
0.421803
0.421804
0.421804
0.421804
0.421805
0.421805
0.421806
0.421806
0.421807
0.421807
0.421808
0.421809
0.421809
0.42181
0.421811
0.421812
0.421812
0.421812
0.421813
0.421814
0.421815
0.421816
0.421816
0.421817
0.421818
0.421819
0.421821
0.421821
0.421822
0.421823
0.421824
0.421825
0.421825
0.421827
0.421828
0.421829
0.421831
0.421831
0.421832
0.421833
0.421835
0.421836
0.421836
0.421838
0.421839
0.421841
0.421842
0.421842
0.421844
0.421846
0.421847
0.421849
0.421849
0.421851
0.421853
0.421854
0.421856
0.421856
0.421858
0.42186
0.421862
0.421864
0.421864
0.421866
0.421868
0.42187
0.421872
0.421872
0.421874
0.421876
0.421878
0.42188
0.42188
0.421882
0.421884
0.421887
0.421889
0.421889
0.421891
0.421894
0.421896
0.421898
0.421898
0.421901
0.421903
0.421906
0.421908
0.421908
0.421911
0.421913
0.421916
0.421918
0.421918
0.421921
0.421924
0.421926
0.421929
0.421929
0.421932
0.421935
0.421937
0.42194
0.42194
0.421943
0.421946
0.421949
0.421952
0.421952
0.421955
0.421958
0.421961
0.421964
0.421964
0.421967
0.42197
0.421973
0.421976
0.421976
0.42198
0.421983
0.421986
0.421989
0.421989
0.421993
0.421996
0.421999
0.422003
0.422003
0.422006
0.42201
0.422013
0.422017
0.422017
0.42202
0.422024
0.422028
0.422031
0.422031
0.422035
0.422039
0.422042
0.422046
0.422046
0.42205
0.422054
0.422057
0.422061
0.422061
0.422065
0.422069
0.422073
0.422077
0.422077
0.422081
0.422085
0.422089
0.422093
0.422093
0.422097
0.422101
0.422106
0.42211
0.42211
0.422114
0.422118
0.422123
0.422127
0.422127
0.422131
0.422136
0.42214
0.422144
0.422144
0.422149
0.422153
0.422158
0.422162
0.422162
0.422167
0.422172
0.422176
0.422181
0.422181
0.422186
0.42219
0.422195
0.4222
0.4222
0.422205
0.422209
0.422214
0.422219
0.422219
0.422224
0.422229
0.422234
0.422239
0.422239
0.422244
0.422249
0.422254
0.422259
0.422259
0.422264
0.42227
0.422275
0.42228
0.42228
0.422285
0.422291
0.422296
0.422301
0.422301
0.422307
0.422312
0.422317
0.422323
0.422323
0.422328
0.422334
0.422339
0.422345
0.422345
0.422351
0.422356
0.422362
0.422367
0.422367
0.422373
0.422379
0.422385
0.422391
0.422391
0.422396
0.422402
0.422408
0.422414
0.422414
0.42242
0.422426
0.422432
0.422438
0.422438
0.422444
0.42245
0.422456
0.422462
0.422462
0.422468
0.422475
0.422481
0.422487
0.422487
0.422493
0.4225
0.422506
0.422512
0.422512
0.422519
0.422525
0.422532
0.422538
0.422538
0.422545
0.422551
0.422558
0.422564
0.422564
0.422571
0.422578
0.422584
0.422591
0.422591
0.422598
0.422605
0.422611
0.422618
0.422618
0.422625
0.422632
0.422639
0.422646
0.422646
0.422653
0.42266
0.422667
0.422674
0.422674
0.422681
0.422688
0.422695
0.422702
0.422702
0.422709
0.422717
0.422724
0.422731
0.422731
0.422739
0.422746
0.422753
0.422761
0.422761
0.422768
0.422775
0.422783
0.42279
0.42279
0.422798
0.422806
0.422813
0.422821
0.422821
0.422828
0.422836
0.422844
0.422852
0.422852
0.422859
0.422867
0.422875
0.422883
0.422883
0.422891
0.422899
0.422906
0.422914
0.422914
0.422922
0.42293
0.422938
0.422947
0.422947
0.422955
0.422963
0.422971
0.422979
0.422979
0.422987
0.422996
0.423004
0.423012
0.423012
0.423021
0.423029
0.423037
0.423046
0.423046
0.423054
0.423063
0.423071
0.42308
0.42308
0.423088
0.423097
0.423105
0.423114
0.423114
0.423123
0.423131
0.42314
0.423149
0.423149
0.423158
0.423167
0.423175
0.423184
0.423184
0.423193
0.423202
0.423211
0.42322
0.42322
0.423229
0.423238
0.423247
0.423256
0.423256
0.423265
0.423275
0.423284
0.423293
0.423293
0.423302
0.423312
0.423321
0.42333
0.42333
0.42334
0.423349
0.423358
0.423368
0.423368
0.423377
0.423387
0.423396
0.423406
0.423406
0.423415
0.423425
0.423435
0.423444
0.423444
0.423454
0.423464
0.423474
0.423483
0.423483
0.423493
0.423503
0.423513
0.423523
0.423523
0.423533
0.423543
0.423553
0.423563
0.423563
0.423573
0.423583
0.423593
0.423603
0.423603
0.423613
0.423623
0.423634
0.423644
0.423644
0.423654
0.423664
0.423675
0.423685
0.423685
0.423695
0.423706
0.423716
0.423727
0.423727
0.423737
0.423748
0.423758
0.423769
0.423769
0.42378
0.42379
0.423801
0.423812
0.423812
0.423822
0.423833
0.423844
0.423855
0.423855
0.423865
0.423876
0.423887
0.423898
0.423898
0.423909
0.42392
0.423931
0.423942
0.423942
0.423953
0.423964
0.423975
0.423987
0.423987
0.423998
0.424009
0.42402
0.424032
0.424032
0.424043
0.424054
0.424066
0.424077
0.424077
0.424088
0.4241
0.424111
0.424123
0.424123
0.424134
0.424146
0.424157
0.424169
0.424169
0.424181
0.424192
0.424204
0.424216
0.424216
0.424227
0.424239
0.424251
0.424263
0.424263
0.424275
0.424287
0.424299
0.424311
0.424311
0.424323
0.424335
0.424347
0.424359
0.424359
0.424371
0.424383
0.424395
0.424407
0.424407
0.424419
0.424432
0.424444
0.424456
0.424456
0.424469
0.424481
0.424493
0.424506
0.424506
0.424518
0.424531
0.424543
0.424556
0.424556
0.424568
0.424581
0.424593
0.424606
0.424606
0.424619
0.424631
0.424644
0.424657
0.424657
0.42467
0.424682
0.424695
0.424708
0.424708
0.424721
0.424734
0.424747
0.42476
0.42476
0.424773
0.424786
0.424799
0.424812
0.424812
0.424825
0.424838
0.424852
0.424865
0.424865
0.424878
0.424891
0.424905
0.424918
0.424918
0.424931
0.424945
0.424958
0.424971
0.424971
0.424985
0.424998
0.425012
0.425026
0.425026
0.425039
0.425053
0.425066
0.42508
0.42508
0.425094
0.425107
0.425121
0.425135
0.425135
0.425149
0.425163
0.425176
0.42519
0.42519
0.425204
0.425218
0.425232
0.425246
0.425246
0.42526
0.425274
0.425288
0.425303
0.425303
0.425317
0.425331
0.425345
0.425359
0.425359
0.425374
0.425388
0.425402
0.425417
0.425417
0.425431
0.425445
0.42546
0.425474
0.425474
0.425489
0.425503
0.425518
0.425532
0.425532
0.425547
0.425562
0.425576
0.425591
0.425591
0.425606
0.42562
0.425635
0.42565
0.42565
0.425665
0.42568
0.425695
0.42571
0.42571
0.425725
0.425739
0.425754
0.42577
0.42577
0.425785
0.4258
0.425815
0.42583
0.42583
0.425845
0.42586
0.425876
0.425891
0.425891
0.425906
0.425921
0.425937
0.425952
0.425952
0.425968
0.425983
0.425999
0.426014
0.426014
0.42603
0.426045
0.426061
0.426076
0.426076
0.426092
0.426108
0.426123
0.426139
0.426139
0.426155
0.42617
0.426186
0.426202
0.426202
0.426218
0.426234
0.42625
0.426266
0.426266
0.426282
0.426298
0.426314
0.42633
0.42633
0.426346
0.426362
0.426378
0.426394
0.426394
0.426411
0.426427
0.426443
0.426459
0.426459
0.426476
0.426492
0.426508
0.426525
0.426525
0.426541
0.426558
0.426574
0.426591
0.426591
0.426607
0.426624
0.426641
0.426657
0.426657
0.426674
0.42669
0.426707
0.426724
0.426724
0.426741
0.426758
0.426774
0.426791
0.426791
0.426808
0.426825
0.426842
0.426859
0.426859
0.426876
0.426893
0.42691
0.426927
0.426927
0.426944
0.426961
0.426979
0.426996
0.426996
0.427013
0.42703
0.427048
0.427065
0.427065
0.427082
0.4271
0.427117
0.427135
0.427135
0.427152
0.427169
0.427187
0.427205
0.427205
0.427222
0.42724
0.427257
0.427275
0.427275
0.427293
0.42731
0.427328
0.427346
0.427346
0.427364
0.427382
0.427399
0.427417
0.427417
0.427435
0.427453
0.427471
0.427489
0.427489
0.427507
0.427525
0.427543
0.427562
0.427562
0.42758
0.427598
0.427616
0.427634
0.427634
0.427653
0.427671
0.427689
0.427708
0.427708
0.427726
0.427744
0.427763
0.427781
0.427781
0.4278
0.427818
0.427837
0.427855
0.427855
0.427874
0.427893
0.427911
0.42793
0.42793
0.427949
0.427967
0.427986
0.428005
0.428005
0.428024
0.428043
0.428062
0.428081
0.428081
0.4281
0.428118
0.428138
0.428157
0.428157
0.428176
0.428195
0.428214
0.428233
0.428233
0.428252
0.428271
0.428291
0.42831
0.42831
0.428329
0.428348
0.428368
0.428387
0.428387
0.428407
0.428426
0.428446
0.428465
0.428465
0.428485
0.428504
0.428524
0.428543
0.428543
0.428563
0.428583
0.428602
0.428622
0.428622
0.428642
0.428662
0.428681
0.428701
0.428701
0.428721
0.428741
0.428761
0.428781
0.428781
0.428801
0.428821
0.428841
0.428861
0.428861
0.428881
0.428901
0.428921
0.428941
0.428941
0.428962
0.428982
0.429002
0.429022
0.429022
0.429043
0.429063
0.429084
0.429104
0.429104
0.429124
0.429145
0.429165
0.429186
0.429186
0.429206
0.429227
0.429248
0.429268
0.429268
0.429289
0.42931
0.42933
0.429351
0.429351
0.429372
0.429393
0.429413
0.429434
0.429434
0.429455
0.429476
0.429497
0.429518
0.429518
0.429539
0.42956
0.429581
0.429602
0.429602
0.429623
0.429645
0.429666
0.429687
0.429687
0.429708
0.42973
0.429751
0.429772
0.429772
0.429793
0.429815
0.429836
0.429858
0.429858
0.429879
0.429901
0.429922
0.429944
0.429944
0.429965
0.429987
0.430009
0.43003
0.43003
0.430052
0.430074
0.430095
0.430117
0.430117
0.430139
0.430161
0.430183
0.430205
0.430205
0.430227
0.430249
0.430271
0.430293
0.430293
0.430315
0.430337
0.430359
0.430381
0.430381
0.430403
0.430425
0.430447
0.43047
0.43047
0.430492
0.430514
0.430537
0.430559
0.430559
0.430581
0.430604
0.430626
0.430649
0.430649
0.430671
0.430694
0.430716
0.430739
0.430739
0.430761
0.430784
0.430807
0.430829
0.430829
0.430852
0.430875
0.430898
0.430921
0.430921
0.430943
0.430966
0.430989
0.431012
0.431012
0.431035
0.431058
0.431081
0.431104
0.431104
0.431127
0.43115
0.431173
0.431197
0.431197
0.43122
0.431243
0.431266
0.431289
0.431289
0.431313
0.431336
0.431359
0.431383
0.431383
0.431406
0.43143
0.431453
0.431477
0.431477
0.4315
0.431524
0.431547
0.431571
0.431571
0.431595
0.431618
0.431642
0.431666
0.431666
0.431689
0.431713
0.431737
0.431761
0.431761
0.431785
0.431809
0.431833
0.431857
0.431857
0.431881
0.431905
0.431929
0.431953
0.431953
0.431977
0.432001
0.432025
0.432049
0.432049
0.432074
0.432098
0.432122
0.432146
0.432146
0.432171
0.432195
0.432219
0.432244
0.432244
0.432268
0.432293
0.432317
0.432342
0.432342
0.432366
0.432391
0.432416
0.43244
0.43244
0.432465
0.43249
0.432514
0.432539
0.432539
0.432564
0.432589
0.432614
0.432638
0.432638
0.432663
0.432688
0.432713
0.432738
0.432738
0.432763
0.432788
0.432813
0.432839
0.432839
0.432864
0.432889
0.432914
0.432939
0.432939
0.432965
0.43299
0.433015
0.43304
0.43304
0.433066
0.433091
0.433117
0.433142
0.433142
0.433168
0.433193
0.433219
0.433244
0.433244
0.43327
0.433295
0.433321
0.433347
0.433347
0.433372
0.433398
0.433424
0.43345
0.43345
0.433476
0.433501
0.433527
0.433553
0.433553
0.433579
0.433605
0.433631
0.433657
0.433657
0.433683
0.433709
0.433735
0.433762
0.433762
0.433788
0.433814
0.43384
0.433866
0.433866
0.433893
0.433919
0.433945
0.433972
0.433972
0.433998
0.434025
0.434051
0.434078
0.434078
0.434104
0.434131
0.434157
0.434184
0.434184
0.43421
0.434237
0.434264
0.43429
0.43429
0.434317
0.434344
0.434371
0.434398
0.434398
0.434424
0.434451
0.434478
0.434505
0.434505
0.434532
0.434559
0.434586
0.434613
0.434613
0.43464
0.434667
0.434695
0.434722
0.434722
0.434749
0.434776
0.434803
0.434831
0.434831
0.434858
0.434885
0.434913
0.43494
0.43494
0.434968
0.434995
0.435023
0.43505
0.43505
0.435078
0.435105
0.435133
0.435161
0.435161
0.435188
0.435216
0.435244
0.435271
0.435271
0.435299
0.435327
0.435355
0.435383
0.435383
0.435411
0.435438
0.435466
0.435494
0.435494
0.435522
0.43555
0.435578
0.435607
0.435607
0.435635
0.435663
0.435691
0.435719
0.435719
0.435747
0.435776
0.435804
0.435832
0.435832
0.435861
0.435889
0.435918
0.435946
0.435946
0.435974
0.436003
0.436031
0.43606
0.43606
0.436089
0.436117
0.436146
0.436175
0.436175
0.436203
0.436232
0.436261
0.436289
0.436289
0.436318
0.436347
0.436376
0.436405
0.436405
0.436434
0.436463
0.436492
0.436521
0.436521
0.43655
0.436579
0.436608
0.436637
0.436637
0.436666
0.436696
0.436725
0.436754
0.436754
0.436783
0.436813
0.436842
0.436871
0.436871
0.436901
0.43693
0.43696
0.436989
0.436989
0.437018
0.437048
0.437078
0.437107
0.437107
0.437137
0.437166
0.437196
0.437226
0.437226
0.437256
0.437285
0.437315
0.437345
0.437345
0.437375
0.437405
0.437435
0.437465
0.437465
0.437494
0.437524
0.437554
0.437585
0.437585
0.437615
0.437645
0.437675
0.437705
0.437705
0.437735
0.437765
0.437796
0.437826
0.437826
0.437856
0.437887
0.437917
0.437947
0.437947
0.437978
0.438008
0.438039
0.438069
0.438069
0.4381
0.43813
0.438161
0.438192
0.438192
0.438222
0.438253
0.438284
0.438314
0.438314
0.438345
0.438376
0.438407
0.438438
0.438438
0.438469
0.4385
0.43853
0.438561
0.438561
0.438592
0.438623
0.438655
0.438686
0.438686
0.438717
0.438748
0.438779
0.43881
0.43881
0.438841
0.438873
0.438904
0.438935
0.438935
0.438967
0.438998
0.439029
0.439061
0.439061
0.439092
0.439124
0.439155
0.439187
0.439187
0.439219
0.43925
0.439282
0.439313
0.439313
0.439345
0.439377
0.439409
0.43944
0.43944
0.439472
0.439504
0.439536
0.439568
0.439568
0.4396
0.439632
0.439664
0.439696
0.439696
0.439728
0.43976
0.439792
0.439824
0.439824
0.439856
0.439888
0.439921
0.439953
0.439953
0.439985
0.440017
0.44005
0.440082
0.440082
0.440114
0.440147
0.440179
0.440212
0.440212
0.440244
0.440277
0.440309
0.440342
0.440342
0.440375
0.440407
0.44044
0.440473
0.440473
0.440505
0.440538
0.440571
0.440604
0.440604
0.440637
0.440669
0.440702
0.440735
0.440735
0.440768
0.440801
0.440834
0.440867
0.440867
0.4409
0.440934
0.440967
0.441
0.441
0.441033
0.441066
0.4411
0.441133
0.441133
0.441166
0.441199
0.441233
0.441266
0.441266
0.4413
0.441333
0.441367
0.4414
0.4414
0.441434
0.441467
0.441501
0.441534
0.441534
0.441568
0.441602
0.441635
0.441669
0.441669
0.441703
0.441737
0.441771
0.441804
0.441804
0.441838
0.441872
0.441906
0.44194
0.44194
0.441974
0.442008
0.442042
0.442076
0.442076
0.442111
0.442145
0.442179
0.442213
0.442213
0.442247
0.442282
0.442316
0.44235
0.44235
0.442385
0.442419
0.442453
0.442488
0.442488
0.442522
0.442557
0.442591
0.442626
0.442626
0.44266
0.442695
0.44273
0.442764
0.442764
0.442799
0.442834
0.442868
0.442903
0.442903
0.442938
0.442973
0.443008
0.443043
0.443043
0.443078
0.443113
0.443148
0.443183
0.443183
0.443218
0.443253
0.443288
0.443323
0.443323
0.443358
0.443393
0.443429
0.443464
0.443464
0.443499
0.443534
0.44357
0.443605
0.443605
0.44364
0.443676
0.443711
0.443747
0.443747
0.443782
0.443818
0.443853
0.443889
0.443889
0.443925
0.44396
0.443996
0.444032
0.444032
0.444067
0.444103
0.444139
0.444175
0.444175
0.444211
0.444247
0.444282
0.444318
0.444318
0.444354
0.44439
0.444426
0.444462
0.444462
0.444499
0.444535
0.444571
0.444607
0.444607
0.444643
0.444679
0.444716
0.444752
0.444752
0.444788
0.444825
0.444861
0.444897
0.444897
0.444934
0.44497
0.445007
0.445043
0.445043
0.44508
0.445116
0.445153
0.44519
0.44519
0.445226
0.445263
0.4453
0.445337
0.445337
0.445373
0.44541
0.445447
0.445484
0.445484
0.445521
0.445558
0.445595
0.445632
0.445632
0.445669
0.445706
0.445743
0.44578
0.44578
0.445817
0.445854
0.445891
0.445929
0.445929
0.445966
0.446003
0.44604
0.446078
0.446078
0.446115
0.446153
0.44619
0.446227
0.446227
0.446265
0.446302
0.44634
0.446377
0.446377
0.446415
0.446453
0.44649
0.446528
0.446528
0.446566
0.446603
0.446641
0.446679
0.446679
0.446717
0.446755
0.446793
0.446831
0.446831
0.446868
0.446906
0.446944
0.446982
0.446982
0.447021
0.447059
0.447097
0.447135
0.447135
0.447173
0.447211
0.44725
0.447288
0.447288
0.447326
0.447364
0.447403
0.447441
0.447441
0.44748
0.447518
0.447556
0.447595
0.447595
0.447633
0.447672
0.447711
0.447749
0.447749
0.447788
0.447827
0.447865
0.447904
0.447904
0.447943
0.447981
0.44802
0.448059
0.448059
0.448098
0.448137
0.448176
0.448215
0.448215
0.448254
0.448293
0.448332
0.448371
0.448371
0.44841
0.448449
0.448488
0.448528
0.448528
0.448567
0.448606
0.448645
0.448685
0.448685
0.448724
0.448763
0.448803
0.448842
0.448842
0.448882
0.448921
0.448961
0.449
0.449
0.44904
0.449079
0.449119
0.449159
0.449159
0.449198
0.449238
0.449278
0.449318
0.449318
0.449357
0.449397
0.449437
0.449477
0.449477
0.449517
0.449557
0.449597
0.449637
0.449637
0.449677
0.449717
0.449757
0.449797
0.449797
0.449837
0.449877
0.449918
0.449958
0.449958
0.449998
0.450038
0.450079
0.450119
0.450119
0.45016
0.4502
0.45024
0.450281
0.450281
0.450321
0.450362
0.450402
0.450443
0.450443
0.450484
0.450524
0.450565
0.450606
0.450606
0.450646
0.450687
0.450728
0.450769
0.450769
0.45081
0.450851
0.450891
0.450932
0.450932
0.450973
0.451014
0.451055
0.451096
0.451096
0.451138
0.451179
0.45122
0.451261
0.451261
0.451302
0.451343
0.451385
0.451426
0.451426
0.451467
0.451509
0.45155
0.451591
0.451591
0.451633
0.451674
0.451716
0.451757
0.451757
0.451799
0.45184
0.451882
0.451924
0.451924
0.451965
0.452007
0.452049
0.452091
0.452091
0.452132
0.452174
0.452216
0.452258
0.452258
0.4523
0.452342
0.452384
0.452426
0.452426
0.452468
0.45251
0.452552
0.452594
0.452594
0.452636
0.452678
0.45272
0.452763
0.452763
0.452805
0.452847
0.452889
0.452932
0.452932
0.452974
0.453017
0.453059
0.453101
0.453101
0.453144
0.453186
0.453229
0.453272
0.453272
0.453314
0.453357
0.4534
0.453442
0.453442
0.453485
0.453528
0.45357
0.453613
0.453613
0.453656
0.453699
0.453742
0.453785
0.453785
0.453828
0.453871
0.453914
0.453957
0.453957
0.454
0.454043
0.454086
0.454129
0.454129
0.454172
0.454216
0.454259
0.454302
0.454302
0.454345
0.454389
0.454432
0.454476
0.454476
0.454519
0.454562
0.454606
0.454649
0.454649
0.454693
0.454737
0.45478
0.454824
0.454824
0.454867
0.454911
0.454955
0.454999
0.454999
0.455042
0.455086
0.45513
0.455174
0.455174
0.455218
0.455262
0.455306
0.45535
0.45535
0.455394
0.455438
0.455482
0.455526
0.455526
0.45557
0.455614
0.455658
0.455702
0.455702
0.455747
0.455791
0.455835
0.45588
0.45588
0.455924
0.455968
0.456013
0.456057
0.456057
0.456102
0.456146
0.456191
0.456235
0.456235
0.45628
0.456324
0.456369
0.456414
0.456414
0.456459
0.456503
0.456548
0.456593
0.456593
0.456638
0.456683
0.456727
0.456772
0.456772
0.456817
0.456862
0.456907
0.456952
0.456952
0.456997
0.457042
0.457088
0.457133
0.457133
0.457178
0.457223
0.457268
0.457314
0.457314
0.457359
0.457404
0.45745
0.457495
0.457495
0.45754
0.457586
0.457631
0.457677
0.457677
0.457722
0.457768
0.457813
0.457859
0.457859
0.457905
0.45795
0.457996
0.458042
0.458042
0.458088
0.458133
0.458179
0.458225
0.458225
0.458271
0.458317
0.458363
0.458409
0.458409
0.458455
0.458501
0.458547
0.458593
0.458593
0.458639
0.458685
0.458731
0.458778
0.458778
0.458824
0.45887
0.458916
0.458963
0.458963
0.459009
0.459056
0.459102
0.459148
0.459148
0.459195
0.459241
0.459288
0.459334
0.459334
0.459381
0.459428
0.459474
0.459521
0.459521
0.459568
0.459614
0.459661
0.459708
0.459708
0.459755
0.459802
0.459849
0.459895
0.459895
0.459942
0.459989
0.460036
0.460083
0.460083
0.46013
0.460178
0.460225
0.460272
0.460272
0.460319
0.460366
0.460413
0.460461
0.460461
0.460508
0.460555
0.460603
0.46065
0.46065
0.460698
0.460745
0.460792
0.46084
0.46084
0.460887
0.460935
0.460983
0.46103
0.46103
0.461078
0.461126
0.461173
0.461221
0.461221
0.461269
0.461317
0.461364
0.461412
0.461412
0.46146
0.461508
0.461556
0.461604
0.461604
0.461652
0.4617
0.461748
0.461796
0.461796
0.461844
0.461892
0.461941
0.461989
0.461989
0.462037
0.462085
0.462134
0.462182
0.462182
0.46223
0.462279
0.462327
0.462376
0.462376
0.462424
0.462473
0.462521
0.46257
0.46257
0.462618
0.462667
0.462716
0.462764
0.462764
0.462813
0.462862
0.46291
0.462959
0.462959
0.463008
0.463057
0.463106
0.463155
0.463155
0.463204
0.463253
0.463302
0.463351
0.463351
0.4634
0.463449
0.463498
0.463547
0.463547
0.463596
0.463646
0.463695
0.463744
0.463744
0.463793
0.463843
0.463892
0.463941
0.463941
0.463991
0.46404
0.46409
0.464139
0.464139
0.464189
0.464238
0.464288
0.464338
0.464338
0.464387
0.464437
0.464487
0.464536
0.464536
0.464586
0.464636
0.464686
0.464736
0.464736
0.464786
0.464835
0.464885
0.464935
0.464935
0.464985
0.465035
0.465086
0.465136
0.465136
0.465186
0.465236
0.465286
0.465336
0.465336
0.465387
0.465437
0.465487
0.465538
0.465538
0.465588
0.465638
0.465689
0.465739
0.465739
0.46579
0.46584
0.465891
0.465941
0.465941
0.465992
0.466043
0.466093
0.466144
0.466144
0.466195
0.466245
0.466296
0.466347
0.466347
0.466398
0.466449
0.4665
0.46655
0.46655
0.466601
0.466652
0.466703
0.466755
0.466755
0.466806
0.466857
0.466908
0.466959
0.466959
0.46701
0.467061
0.467113
0.467164
0.467164
0.467215
0.467267
0.467318
0.467369
0.467369
0.467421
0.467472
0.467524
0.467575
0.467575
0.467627
0.467678
0.46773
0.467782
0.467782
0.467833
0.467885
0.467937
0.467989
0.467989
0.46804
0.468092
0.468144
0.468196
0.468196
0.468248
0.4683
0.468352
0.468404
0.468404
0.468456
0.468508
0.46856
0.468612
0.468612
0.468664
0.468716
0.468769
0.468821
0.468821
0.468873
0.468925
0.468978
0.46903
0.46903
0.469082
0.469135
0.469187
0.46924
0.46924
0.469292
0.469345
0.469397
0.46945
0.46945
0.469503
0.469555
0.469608
0.469661
0.469661
0.469713
0.469766
0.469819
0.469872
0.469872
0.469925
0.469978
0.47003
0.470083
0.470083
0.470136
0.470189
0.470242
0.470296
0.470296
0.470349
0.470402
0.470455
0.470508
0.470508
0.470561
0.470615
0.470668
0.470721
0.470721
0.470774
0.470828
0.470881
0.470935
0.470935
0.470988
0.471042
0.471095
0.471149
0.471149
0.471202
0.471256
0.47131
0.471363
0.471363
0.471417
0.471471
0.471524
0.471578
0.471578
0.471632
0.471686
0.47174
0.471794
0.471794
0.471848
0.471901
0.471955
0.472009
0.472009
0.472064
0.472118
0.472172
0.472226
0.472226
0.47228
0.472334
0.472388
0.472443
0.472443
0.472497
0.472551
0.472606
0.47266
0.47266
0.472715
0.472769
0.472823
0.472878
0.472878
0.472932
0.472987
0.473042
0.473096
0.473096
0.473151
0.473206
0.47326
0.473315
0.473315
0.47337
0.473425
0.473479
0.473534
0.473534
0.473589
0.473644
0.473699
0.473754
0.473754
0.473809
0.473864
0.473919
0.473974
0.473974
0.474029
0.474085
0.47414
0.474195
0.474195
0.47425
0.474305
0.474361
0.474416
0.474416
0.474472
0.474527
0.474582
0.474638
0.474638
0.474693
0.474749
0.474804
0.47486
0.47486
0.474916
0.474971
0.475027
0.475083
0.475083
0.475138
0.475194
0.47525
0.475306
0.475306
0.475362
0.475417
0.475473
0.475529
0.475529
0.475585
0.475641
0.475697
0.475753
0.475753
0.475809
0.475866
0.475922
0.475978
0.475978
0.476034
0.47609
0.476147
0.476203
0.476203
0.476259
0.476316
0.476372
0.476428
0.476428
0.476485
0.476541
0.476598
0.476654
0.476654
0.476711
0.476767
0.476824
0.476881
0.476881
0.476937
0.476994
0.477051
0.477108
0.477108
0.477165
0.477221
0.477278
0.477335
0.477335
0.477392
0.477449
0.477506
0.477563
0.477563
0.47762
0.477677
0.477734
0.477791
0.477791
0.477849
0.477906
0.477963
0.47802
0.47802
0.478078
0.478135
0.478192
0.47825
0.47825
0.478307
0.478364
0.478422
0.478479
0.478479
0.478537
0.478595
0.478652
0.47871
0.47871
0.478767
0.478825
0.478883
0.478941
0.478941
0.478998
0.479056
0.479114
0.479172
0.479172
0.47923
0.479288
0.479346
0.479404
0.479404
0.479462
0.47952
0.479578
0.479636
0.479636
0.479694
0.479752
0.47981
0.479869
0.479869
0.479927
0.479985
0.480043
0.480102
0.480102
0.48016
0.480219
0.480277
0.480335
0.480335
0.480394
0.480452
0.480511
0.48057
0.48057
0.480628
0.480687
0.480746
0.480804
0.480804
0.480863
0.480922
0.480981
0.481039
0.481039
0.481098
0.481157
0.481216
0.481275
0.481275
0.481334
0.481393
0.481452
0.481511
0.481511
0.48157
0.481629
0.481689
0.481748
0.481748
0.481807
0.481866
0.481925
0.481985
0.481985
0.482044
0.482103
0.482163
0.482222
0.482222
0.482282
0.482341
0.482401
0.48246
0.48246
0.48252
0.48258
0.482639
0.482699
0.482699
0.482759
0.482818
0.482878
0.482938
0.482938
0.482998
0.483058
0.483117
0.483177
0.483177
0.483237
0.483297
0.483357
0.483417
0.483417
0.483477
0.483538
0.483598
0.483658
0.483658
0.483718
0.483778
0.483838
0.483899
0.483899
0.483959
0.484019
0.48408
0.48414
0.48414
0.484201
0.484261
0.484322
0.484382
0.484382
0.484443
0.484503
0.484564
0.484625
0.484625
0.484685
0.484746
0.484807
0.484867
0.484867
0.484928
0.484989
0.48505
0.485111
0.485111
0.485172
0.485233
0.485294
0.485355
0.485355
0.485416
0.485477
0.485538
0.485599
0.485599
0.48566
0.485721
0.485783
0.485844
0.485844
0.485905
0.485966
0.486028
0.486089
0.486089
0.486151
0.486212
0.486273
0.486335
0.486335
0.486396
0.486458
0.48652
0.486581
0.486581
0.486643
0.486705
0.486766
0.486828
0.486828
0.48689
0.486952
0.487013
0.487075
0.487075
0.487137
0.487199
0.487261
0.487323
0.487323
0.487385
0.487447
0.487509
0.487571
0.487571
0.487633
0.487696
0.487758
0.48782
0.48782
0.487882
0.487945
0.488007
0.488069
0.488069
0.488132
0.488194
0.488256
0.488319
0.488319
0.488381
0.488444
0.488507
0.488569
0.488569
0.488632
0.488694
0.488757
0.48882
0.48882
0.488883
0.488945
0.489008
0.489071
0.489071
0.489134
0.489197
0.48926
0.489323
0.489323
0.489386
0.489449
0.489512
0.489575
0.489575
0.489638
0.489701
0.489764
0.489827
0.489827
0.489891
0.489954
0.490017
0.490081
0.490081
0.490144
0.490207
0.490271
0.490334
0.490334
0.490398
0.490461
0.490525
0.490588
0.490588
0.490652
0.490716
0.490779
0.490843
0.490843
0.490907
0.49097
0.491034
0.491098
0.491098
0.491162
0.491226
0.49129
0.491354
0.491354
0.491418
0.491482
0.491546
0.49161
0.49161
0.491674
0.491738
0.491802
0.491866
0.491866
0.49193
0.491995
0.492059
0.492123
0.492123
0.492188
0.492252
0.492316
0.492381
0.492381
0.492445
0.49251
0.492574
0.492639
0.492639
0.492704
0.492768
0.492833
0.492897
0.492897
0.492962
0.493027
0.493092
0.493156
0.493156
0.493221
0.493286
0.493351
0.493416
0.493416
0.493481
0.493546
0.493611
0.493676
0.493676
0.493741
0.493806
0.493871
0.493936
0.493936
0.494002
0.494067
0.494132
0.494197
0.494197
0.494263
0.494328
0.494394
0.494459
0.494459
0.494524
0.49459
0.494655
0.494721
0.494721
0.494787
0.494852
0.494918
0.494983
0.494983
0.495049
0.495115
0.495181
0.495246
0.495246
0.495312
0.495378
0.495444
0.49551
0.49551
0.495576
0.495642
0.495708
0.495774
0.495774
0.49584
0.495906
0.495972
0.496038
0.496038
0.496104
0.496171
0.496237
0.496303
0.496303
0.496369
0.496436
0.496502
0.496569
0.496569
0.496635
0.496702
0.496768
0.496835
0.496835
0.496901
0.496968
0.497034
0.497101
0.497101
0.497168
0.497234
0.497301
0.497368
0.497368
0.497435
0.497502
0.497568
0.497635
0.497635
0.497702
0.497769
0.497836
0.497903
0.497903
0.49797
0.498037
0.498104
0.498172
0.498172
0.498239
0.498306
0.498373
0.498441
0.498441
0.498508
0.498575
0.498643
0.49871
0.49871
0.498777
0.498845
0.498912
0.49898
0.49898
0.499047
0.499115
0.499183
0.49925
0.49925
0.499318
0.499386
0.499453
0.499521
0.499521
0.499589
0.499657
0.499725
0.499792
0.499792
0.49986
0.499928
0.499996
0.500064
0.500064
0.500132
0.500201
0.500269
0.500337
0.500337
0.500405
0.500473
0.500541
0.50061
0.50061
0.500678
0.500746
0.500815
0.500883
0.500883
0.500951
0.50102
0.501088
0.501157
0.501157
0.501225
0.501294
0.501363
0.501431
0.501431
0.5015
0.501569
0.501637
0.501706
0.501706
0.501775
0.501844
0.501913
0.501981
0.501981
0.50205
0.502119
0.502188
0.502257
0.502257
0.502326
0.502395
0.502465
0.502534
0.502534
0.502603
0.502672
0.502741
0.502811
0.502811
0.50288
0.502949
0.503019
0.503088
0.503088
0.503157
0.503227
0.503296
0.503366
0.503366
0.503435
0.503505
0.503575
0.503644
0.503644
0.503714
0.503784
0.503853
0.503923
0.503923
0.503993
0.504063
0.504133
0.504202
0.504202
0.504272
0.504342
0.504412
0.504482
0.504482
0.504552
0.504622
0.504693
0.504763
0.504763
0.504833
0.504903
0.504973
0.505044
0.505044
0.505114
0.505184
0.505255
0.505325
0.505325
0.505395
0.505466
0.505536
0.505607
0.505607
0.505677
0.505748
0.505819
0.505889
0.505889
0.50596
0.506031
0.506101
0.506172
0.506172
0.506243
0.506314
0.506385
0.506455
0.506455
0.506526
0.506597
0.506668
0.506739
0.506739
0.50681
0.506881
0.506953
0.507024
0.507024
0.507095
0.507166
0.507237
0.507309
0.507309
0.50738
0.507451
0.507523
0.507594
0.507594
0.507665
0.507737
0.507808
0.50788
0.50788
0.507951
0.508023
0.508095
0.508166
0.508166
0.508238
0.50831
0.508381
0.508453
0.508453
0.508525
0.508597
0.508669
0.508741
0.508741
0.508813
0.508884
0.508956
0.509028
0.509028
0.509101
0.509173
0.509245
0.509317
0.509317
0.509389
0.509461
0.509534
0.509606
0.509606
0.509678
0.50975
0.509823
0.509895
0.509895
0.509968
0.51004
0.510113
0.510185
0.510185
0.510258
0.51033
0.510403
0.510476
0.510476
0.510548
0.510621
0.510694
0.510767
0.510767
0.510839
0.510912
0.510985
0.511058
0.511058
0.511131
0.511204
0.511277
0.51135
0.51135
0.511423
0.511496
0.511569
0.511642
0.511642
0.511716
0.511789
0.511862
0.511935
0.511935
0.512009
0.512082
0.512155
0.512229
0.512229
0.512302
0.512376
0.512449
0.512523
0.512523
0.512596
0.51267
0.512744
0.512817
0.512817
0.512891
0.512965
0.513039
0.513112
0.513112
0.513186
0.51326
0.513334
0.513408
0.513408
0.513482
0.513556
0.51363
0.513704
0.513704
0.513778
0.513852
0.513926
0.514
0.514
0.514075
0.514149
0.514223
0.514297
0.514297
0.514372
0.514446
0.514521
0.514595
0.514595
0.51467
0.514744
0.514819
0.514893
0.514893
0.514968
0.515042
0.515117
0.515192
0.515192
0.515266
0.515341
0.515416
0.515491
0.515491
0.515566
0.51564
0.515715
0.51579
0.51579
0.515865
0.51594
0.516015
0.51609
0.51609
0.516166
0.516241
0.516316
0.516391
0.516391
0.516466
0.516542
0.516617
0.516692
0.516692
0.516768
0.516843
0.516918
0.516994
0.516994
0.517069
0.517145
0.51722
0.517296
0.517296
0.517372
0.517447
0.517523
0.517599
0.517599
0.517674
0.51775
0.517826
0.517902
0.517902
0.517978
0.518054
0.51813
0.518205
0.518205
0.518281
0.518358
0.518434
0.51851
0.51851
0.518586
0.518662
0.518738
0.518814
0.518814
0.518891
0.518967
0.519043
0.51912
0.51912
0.519196
0.519272
0.519349
0.519425
0.519425
0.519502
0.519578
0.519655
0.519732
0.519732
0.519808
0.519885
0.519962
0.520038
0.520038
0.520115
0.520192
0.520269
0.520346
0.520346
0.520423
0.520499
0.520576
0.520653
0.520653
0.52073
0.520808
0.520885
0.520962
0.520962
0.521039
0.521116
0.521193
0.521271
0.521271
0.521348
0.521425
0.521503
0.52158
0.52158
0.521657
0.521735
0.521812
0.52189
0.52189
0.521967
0.522045
0.522123
0.5222
0.5222
0.522278
0.522356
0.522433
0.522511
0.522511
0.522589
0.522667
0.522745
0.522822
0.522822
0.5229
0.522978
0.523056
0.523134
0.523134
0.523212
0.523291
0.523369
0.523447
0.523447
0.523525
0.523603
0.523682
0.52376
0.52376
0.523838
0.523916
0.523995
0.524073
0.524073
0.524152
0.52423
0.524309
0.524387
0.524387
0.524466
0.524544
0.524623
0.524702
0.524702
0.524781
0.524859
0.524938
0.525017
0.525017
0.525096
0.525175
0.525253
0.525332
0.525332
0.525411