<?xml version="1.0"?>
<VTKFile type="UnstructuredGrid" version="0.1" byte_order="LittleEndian">
<UnstructuredGrid>
<Piece NumberOfPoints="5000" NumberOfCells="4000">
<PointData Scalars="Reaction 0">
<DataArray type="Float32" Name="Reaction 0" format="ascii">
0.630141
0.630141
0.630141
0.630141
0.630141
0.630141
0.630141
0.630141
0.630141
0.630141
0.630141
0.630141
0.630141
0.630141
0.630141
0.630141
0.630141
0.630141
0.630142
0.630142
0.630142
0.630142
0.630142
0.630142
0.630142
0.630142
0.630142
0.630142
0.630142
0.630142
0.630142
0.630142
0.630142
0.630142
0.630142
0.630142
0.630142
0.630142
0.630142
0.630143
0.630143
0.630143
0.630143
0.630143
0.630143
0.630143
0.630143
0.630143
0.630143
0.630143
0.630143
0.630143
0.630143
0.630144
0.630144
0.630144
0.630144
0.630144
0.630144
0.630144
0.630144
0.630144
0.630144
0.630145
0.630145
0.630145
0.630145
0.630145
0.630145
0.630145
0.630145
0.630145
0.630145
0.630146
0.630146
0.630146
0.630146
0.630146
0.630146
0.630146
0.630146
0.630147
0.630147
0.630147
0.630147
0.630147
0.630147
0.630147
0.630148
0.630148
0.630148
0.630148
0.630148
0.630148
0.630148
0.630148
0.630149
0.630149
0.630149
0.630149
0.630149
0.630149
0.63015
0.63015
0.63015
0.63015
0.63015
0.630151
0.630151
0.630151
0.630151
0.630151
0.630151
0.630152
0.630152
0.630152
0.630152
0.630152
0.630153
0.630153
0.630153
0.630153
0.630153
0.630154
0.630154
0.630154
0.630154
0.630154
0.630155
0.630155
0.630155
0.630155
0.630155
0.630156
0.630156
0.630156
0.630156
0.630156
0.630157
0.630157
0.630157
0.630157
0.630158
0.630158
0.630158
0.630158
0.630158
0.630159
0.630159
0.630159
0.630159
0.63016
0.63016
0.63016
0.63016
0.63016
0.630161
0.630161
0.630161
0.630162
0.630162
0.630162
0.630162
0.630163
0.630163
0.630163
0.630163
0.630164
0.630164
0.630164
0.630164
0.630165
0.630165
0.630165
0.630166
0.630166
0.630166
0.630166
0.630167
0.630167
0.630167
0.630168
0.630168
0.630168
0.630169
0.630169
0.630169
0.630169
0.63017
0.63017
0.63017
0.630171
0.630171
0.630171
0.630172
0.630172
0.630172
0.630172
0.630173
0.630173
0.630173
0.630174
0.630174
0.630174
0.630175
0.630175
0.630175
0.630176
0.630176
0.630177
0.630177
0.630177
0.630177
0.630178
0.630178
0.630178
0.630179
0.630179
0.63018
0.63018
0.63018
0.63018
0.630181
0.630181
0.630182
0.630182
0.630182
0.630183
0.630183
0.630184
0.630184
0.630184
0.630185
0.630185
0.630185
0.630185
0.630186
0.630186
0.630187
0.630187
0.630187
0.630188
0.630188
0.630189
0.630189
0.630189
0.63019
0.63019
0.630191
0.630191
0.630191
0.630192
0.630192
0.630193
0.630193
0.630193
0.630194
0.630194
0.630195
0.630195
0.630195
0.630196
0.630196
0.630197
0.630197
0.630197
0.630198
0.630199
0.630199
0.6302
0.6302
0.6302
0.630201
0.630201
0.630202
0.630202
0.630202
0.630203
0.630203
0.630204
0.630204
0.630205
0.630205
0.630206
0.630206
0.630206
0.630207
0.630207
0.630208
0.630209
0.630209
0.630209
0.63021
0.63021
0.630211
0.630211
0.630211
0.630212
0.630213
0.630213
0.630213
0.630214
0.630214
0.630215
0.630216
0.630216
0.630216
0.630217
0.630218
0.630218
0.630218
0.630219
0.630219
0.63022
0.630221
0.630221
0.630221
0.630222
0.630223
0.630223
0.630223
0.630224
0.630224
0.630225
0.630226
0.630226
0.630226
0.630227
0.630228
0.630228
0.630228
0.630229
0.63023
0.63023
0.630231
0.630231
0.630232
0.630232
0.630233
0.630234
0.630234
0.630234
0.630235
0.630236
0.630237
0.630237
0.630237
0.630238
0.630239
0.630239
0.630239
0.63024
0.630241
0.630241
0.630242
0.630242
0.630243
0.630244
0.630244
0.630245
0.630245
0.630246
0.630246
0.630247
0.630248
0.630248
0.630249
0.630249
0.63025
0.630251
0.630251
0.630252
0.630252
0.630253
0.630254
0.630254
0.630255
0.630255
0.630256
0.630257
0.630257
0.630258
0.630258
0.630259
0.63026
0.63026
0.630261
0.630261
0.630262
0.630263
0.630263
0.630264
0.630265
0.630265
0.630266
0.630266
0.630267
0.630268
0.630268
0.630269
0.630269
0.63027
0.630271
0.630272
0.630272
0.630272
0.630273
0.630274
0.630275
0.630276
0.630276
0.630277
0.630277
0.630278
0.630279
0.630279
0.63028
0.630281
0.630282
0.630282
0.630282
0.630283
0.630284
0.630285
0.630286
0.630286
0.630287
0.630287
0.630288
0.630289
0.630289
0.63029
0.630291
0.630292
0.630293
0.630293
0.630293
0.630294
0.630295
0.630296
0.630296
0.630297
0.630298
0.630299
0.6303
0.6303
0.630301
0.630301
0.630302
0.630303
0.630303
0.630304
0.630305
0.630306
0.630307
0.630307
0.630308
0.630309
0.63031
0.63031
0.63031
0.630311
0.630312
0.630313
0.630314
0.630314
0.630315
0.630316
0.630317
0.630318
0.630318
0.630319
0.63032
0.630321
0.630322
0.630322
0.630323
0.630324
0.630325
0.630325
0.630325
0.630326
0.630327
0.630328
0.630329
0.630329
0.63033
0.630331
0.630332
0.630333
0.630333
0.630334
0.630335
0.630336
0.630337
0.630337
0.630338
0.630339
0.63034
0.630341
0.630341
0.630342
0.630343
0.630344
0.630345
0.630345
0.630346
0.630347
0.630348
0.630349
0.630349
0.63035
0.630351
0.630352
0.630353
0.630353
0.630354
0.630355
0.630356
0.630357
0.630357
0.630358
0.630359
0.630361
0.630362
0.630362
0.630363
0.630364
0.630365
0.630366
0.630366
0.630367
0.630368
0.630369
0.63037
0.63037
0.630371
0.630372
0.630373
0.630374
0.630374
0.630375
0.630376
0.630378
0.630379
0.630379
0.63038
0.630381
0.630382
0.630383
0.630383
0.630384
0.630385
0.630386
0.630387
0.630387
0.630388
0.63039
0.630391
0.630392
0.630392
0.630393
0.630394
0.630395
0.630396
0.630396
0.630397
0.630399
0.6304
0.630401
0.630401
0.630402
0.630403
0.630404
0.630405
0.630405
0.630407
0.630408
0.630409
0.63041
0.63041
0.630411
0.630412
0.630413
0.630415
0.630415
0.630416
0.630417
0.630418
0.630419
0.630419
0.63042
0.630422
0.630423
0.630424
0.630424
0.630425
0.630426
0.630428
0.630429
0.630429
0.63043
0.630431
0.630432
0.630434
0.630434
0.630435
0.630436
0.630437
0.630438
0.630438
0.63044
0.630441
0.630442
0.630443
0.630443
0.630445
0.630446
0.630447
0.630448
0.630448
0.630449
0.630451
0.630452
0.630453
0.630453
0.630454
0.630456
0.630457
0.630458
0.630458
0.630459
0.630461
0.630462
0.630463
0.630463
0.630465
0.630466
0.630467
0.630468
0.630468
0.63047
0.630471
0.630472
0.630473
0.630473
0.630475
0.630476
0.630477
0.630479
0.630479
0.63048
0.630481
0.630482
0.630484
0.630484
0.630485
0.630486
0.630488
0.630489
0.630489
0.63049
0.630492
0.630493
0.630494
0.630494
0.630496
0.630497
0.630498
0.6305
0.6305
0.630501
0.630502
0.630504
0.630505
0.630505
0.630506
0.630508
0.630509
0.63051
0.63051
0.630512
0.630513
0.630514
0.630516
0.630516
0.630517
0.630518
0.63052
0.630521
0.630521
0.630523
0.630524
0.630525
0.630527
0.630527
0.630528
0.630529
0.630531
0.630532
0.630532
0.630534
0.630535
0.630536
0.630538
0.630538
0.630539
0.630541
0.630542
0.630543
0.630543
0.630545
0.630546
0.630548
0.630549
0.630549
0.630551
0.630552
0.630553
0.630555
0.630555
0.630556
0.630558
0.630559
0.630561
0.630561
0.630562
0.630563
0.630565
0.630566
0.630566
0.630568
0.630569
0.630571
0.630572
0.630572
0.630574
0.630575
0.630577
0.630578
0.630578
0.63058
0.630581
0.630582
0.630584
0.630584
0.630585
0.630587
0.630588
0.63059
0.63059
0.630591
0.630593
0.630594
0.630596
0.630596
0.630597
0.630599
0.6306
0.630602
0.630602
0.630603
0.630605
0.630606
0.630608
0.630608
0.630609
0.630611
0.630613
0.630614
0.630614
0.630616
0.630617
0.630619
0.63062
0.63062
0.630622
0.630623
0.630625
0.630626
0.630626
0.630628
0.630629
0.630631
0.630633
0.630633
0.630634
0.630636
0.630637
0.630639
0.630639
0.63064
0.630642
0.630644
0.630645
0.630645
0.630647
0.630648
0.63065
0.630651
0.630651
0.630653
0.630655
0.630656
0.630658
0.630658
0.630659
0.630661
0.630663
0.630664
0.630664
0.630666
0.630667
0.630669
0.630671
0.630671
0.630672
0.630674
0.630675
0.630677
0.630677
0.630679
0.63068
0.630682
0.630684
0.630684
0.630685
0.630687
0.630689
0.63069
0.63069
0.630692
0.630693
0.630695
0.630697
0.630697
0.630698
0.6307
0.630702
0.630703
0.630703
0.630705
0.630707
0.630708
0.63071
0.63071
0.630712
0.630713
0.630715
0.630717
0.630717
0.630719
0.63072
0.630722
0.630724
0.630724
0.630725
0.630727
0.630729
0.63073
0.63073
0.630732
0.630734
0.630736
0.630737
0.630737
0.630739
0.630741
0.630742
0.630744
0.630744
0.630746
0.630748
0.630749
0.630751
0.630751
0.630753
0.630754
0.630756
0.630758
0.630758
0.63076
0.630761
0.630763
0.630765
0.630765
0.630767
0.630768
0.63077
0.630772
0.630772
0.630774
0.630776
0.630777
0.630779
0.630779
0.630781
0.630783
0.630784
0.630786
0.630786
0.630788
0.63079
0.630792
0.630793
0.630793
0.630795
0.630797
0.630799
0.6308
0.6308
0.630802
0.630804
0.630806
0.630808
0.630808
0.63081
0.630811
0.630813
0.630815
0.630815
0.630817
0.630819
0.63082
0.630822
0.630822
0.630824
0.630826
0.630828
0.63083
0.63083
0.630831
0.630833
0.630835
0.630837
0.630837
0.630839
0.630841
0.630843
0.630844
0.630844
0.630846
0.630848
0.63085
0.630852
0.630852
0.630854
0.630856
0.630857
0.630859
0.630859
0.630861
0.630863
0.630865
0.630867
0.630867
0.630869
0.630871
0.630873
0.630874
0.630874
0.630876
0.630878
0.63088
0.630882
0.630882
0.630884
0.630886
0.630888
0.63089
0.63089
0.630892
0.630894
0.630895
0.630897
0.630897
0.630899
0.630901
0.630903
0.630905
0.630905
0.630907
0.630909
0.630911
0.630913
0.630913
0.630915
0.630917
0.630919
0.630921
0.630921
0.630923
0.630925
0.630927
0.630928
0.630928
0.63093
0.630932
0.630934
0.630936
0.630936
0.630938
0.63094
0.630942
0.630944
0.630944
0.630946
0.630948
0.63095
0.630952
0.630952
0.630954
0.630956
0.630958
0.63096
0.63096
0.630962
0.630964
0.630966
0.630968
0.630968
0.63097
0.630972
0.630974
0.630976
0.630976
0.630978
0.63098
0.630982
0.630984
0.630984
0.630986
0.630989
0.630991
0.630993
0.630993
0.630995
0.630997
0.630999
0.631001
0.631001
0.631003
0.631005
0.631007
0.631009
0.631009
0.631011
0.631013
0.631015
0.631017
0.631017
0.631019
0.631021
0.631023
0.631026
0.631026
0.631028
0.63103
0.631032
0.631034
0.631034
0.631036
0.631038
0.63104
0.631042
0.631042
0.631044
0.631046
0.631049
0.631051
0.631051
0.631053
0.631055
0.631057
0.631059
0.631059
0.631061
0.631063
0.631065
0.631068
0.631068
0.63107
0.631072
0.631074
0.631076
0.631076
0.631078
0.63108
0.631083
0.631085
0.631085
0.631087
0.631089
0.631091
0.631093
0.631093
0.631095
0.631098
0.6311
0.631102
0.631102
0.631104
0.631106
0.631108
0.631111
0.631111
0.631113
0.631115
0.631117
0.631119
0.631119
0.631122
0.631124
0.631126
0.631128
0.631128
0.63113
0.631133
0.631135
0.631137
0.631137
0.631139
0.631141
0.631144
0.631146
0.631146
0.631148
0.63115
0.631152
0.631155
0.631155
0.631157
0.631159
0.631161
0.631164
0.631164
0.631166
0.631168
0.63117
0.631172
0.631172
0.631175
0.631177
0.631179
0.631181
0.631181
0.631184
0.631186
0.631188
0.63119
0.63119
0.631193
0.631195
0.631197
0.6312
0.6312
0.631202
0.631204
0.631206
0.631209
0.631209
0.631211
0.631213
0.631215
0.631218
0.631218
0.63122
0.631222
0.631225
0.631227
0.631227
0.631229
0.631232
0.631234
0.631236
0.631236
0.631238
0.631241
0.631243
0.631245
0.631245
0.631248
0.63125
0.631252
0.631255
0.631255
0.631257
0.631259
0.631262
0.631264
0.631264
0.631266
0.631269
0.631271
0.631273
0.631273
0.631276
0.631278
0.63128
0.631283
0.631283
0.631285
0.631288
0.63129
0.631292
0.631292
0.631295
0.631297
0.631299
0.631302
0.631302
0.631304
0.631306
0.631309
0.631311
0.631311
0.631314
0.631316
0.631318
0.631321
0.631321
0.631323
0.631326
0.631328
0.63133
0.63133
0.631333
0.631335
0.631338
0.63134
0.63134
0.631342
0.631345
0.631347
0.63135
0.63135
0.631352
0.631355
0.631357
0.631359
0.631359
0.631362
0.631364
0.631367
0.631369
0.631369
0.631372
0.631374
0.631376
0.631379
0.631379
0.631381
0.631384
0.631386
0.631389
0.631389
0.631391
0.631394
0.631396
0.631399
0.631399
0.631401
0.631404
0.631406
0.631409
0.631409
0.631411
0.631413
0.631416
0.631418
0.631418
0.631421
0.631423
0.631426
0.631428
0.631428
0.631431
0.631433
0.631436
0.631438
0.631438
0.631441
0.631443
0.631446
0.631448
0.631448
0.631451
0.631453
0.631456
0.631459
0.631459
0.631461
0.631464
0.631466
0.631469
0.631469
0.631471
0.631474
0.631476
0.631479
0.631479
0.631481
0.631484
0.631486
0.631489
0.631489
0.631492
0.631494
0.631497
0.631499
0.631499
0.631502
0.631504
0.631507
0.63151
0.63151
0.631512
0.631515
0.631517
0.63152
0.63152
0.631522
0.631525
0.631528
0.63153
0.63153
0.631533
0.631535
0.631538
0.631541
0.631541
0.631543
0.631546
0.631548
0.631551
0.631551
0.631554
0.631556
0.631559
0.631561
0.631561
0.631564
0.631567
0.631569
0.631572
0.631572
0.631575
0.631577
0.63158
0.631583
0.631583
0.631585
0.631588
0.63159
0.631593
0.631593
0.631596
0.631598
0.631601
0.631604
0.631604
0.631606
0.631609
0.631612
0.631614
0.631614
0.631617
0.63162
0.631622
0.631625
0.631625
0.631628
0.63163
0.631633
0.631636
0.631636
0.631638
0.631641
0.631644
0.631646
0.631646
0.631649
0.631652
0.631655
0.631657
0.631657
0.63166
0.631663
0.631665
0.631668
0.631668
0.631671
0.631674
0.631676
0.631679
0.631679
0.631682
0.631684
0.631687
0.63169
0.63169
0.631693
0.631695
0.631698
0.631701
0.631701
0.631704
0.631706
0.631709
0.631712
0.631712
0.631715
0.631717
0.63172
0.631723
0.631723
0.631726
0.631728
0.631731
0.631734
0.631734
0.631737
0.631739
0.631742
0.631745
0.631745
0.631748
0.631751
0.631753
0.631756
0.631756
0.631759
0.631762
0.631765
0.631767
0.631767
0.63177
0.631773
0.631776
0.631779
0.631779
0.631781
0.631784
0.631787
0.63179
0.63179
0.631793
0.631795
0.631798
0.631801
0.631801
0.631804
0.631807
0.631809
0.631812
0.631812
0.631815
0.631818
0.631821
0.631824
0.631824
0.631827
0.631829
0.631832
0.631835
0.631835
0.631838
0.631841
0.631844
0.631847
0.631847
0.631849
0.631852
0.631855
0.631858
0.631858
0.631861
0.631864
0.631867
0.631869
0.631869
0.631872
0.631875
0.631878
0.631881
0.631881
0.631884
0.631887
0.63189
0.631893
0.631893
0.631895
0.631898
0.631901
0.631904
0.631904
0.631907
0.63191
0.631913
0.631916
0.631916
0.631919
0.631922
0.631925
0.631928
0.631928
0.63193
0.631933
0.631936
0.631939
0.631939
0.631942
0.631945
0.631948
0.631951
0.631951
0.631954
0.631957
0.63196
0.631963
0.631963
0.631966
0.631969
0.631972
0.631975
0.631975
0.631978
0.631981
0.631984
0.631987
0.631987
0.63199
0.631992
0.631995
0.631998
0.631998
0.632001
0.632004
0.632007
0.63201
0.63201
0.632013
0.632016
0.632019
0.632022
0.632022
0.632025
0.632028
0.632031
0.632034
0.632034
0.632037
0.63204
0.632043
0.632046
0.632046
0.63205
0.632053
0.632056
0.632059
0.632059
0.632062
0.632065
0.632068
0.632071
0.632071
0.632074
0.632077
0.63208
0.632083
0.632083
0.632086
0.632089
0.632092
0.632095
0.632095
0.632098
0.632101
0.632104
0.632107
0.632107
0.63211
0.632113
0.632117
0.63212
0.63212
0.632123
0.632126
0.632129
0.632132
0.632132
0.632135
0.632138
0.632141
0.632144
0.632144
0.632147
0.63215
0.632154
0.632157
0.632157
0.63216
0.632163
0.632166
0.632169
0.632169
0.632172
0.632175
0.632178
0.632182
0.632182
0.632185
0.632188
0.632191
0.632194
0.632194
0.632197
0.6322
0.632203
0.632207
0.632207
0.63221
0.632213
0.632216
0.632219
0.632219
0.632222
0.632225
0.632229
0.632232
0.632232
0.632235
0.632238
0.632241
0.632244
0.632244
0.632248
0.632251
0.632254
0.632257
0.632257
0.63226
0.632263
0.632267
0.63227
0.63227
0.632273
0.632276
0.632279
0.632283
0.632283
0.632286
0.632289
0.632292
0.632295
0.632295
0.632299
0.632302
0.632305
0.632308
0.632308
0.632311
0.632315
0.632318
0.632321
0.632321
0.632324
0.632327
0.632331
0.632334
0.632334
0.632337
0.63234
0.632344
0.632347
0.632347
0.63235
0.632353
0.632357
0.63236
0.63236
0.632363
0.632366
0.63237
0.632373
0.632373
0.632376
0.632379
0.632383
0.632386
0.632386
0.632389
0.632392
0.632396
0.632399
0.632399
0.632402
0.632406
0.632409
0.632412
0.632412
0.632415
0.632419
0.632422
0.632425
0.632425
0.632429
0.632432
0.632435
0.632438
0.632438
0.632442
0.632445
0.632448
0.632452
0.632452
0.632455
0.632458
0.632462
0.632465
0.632465
0.632468
0.632472
0.632475
0.632478
0.632478
0.632482
0.632485
0.632488
0.632492
0.632492
0.632495
0.632498
0.632502
0.632505
0.632505
0.632508
0.632512
0.632515
0.632518
0.632518
0.632522
0.632525
0.632528
0.632532
0.632532
0.632535
0.632539
0.632542
0.632545
0.632545
0.632549
0.632552
0.632555
0.632559
0.632559
0.632562
0.632566
0.632569
0.632572
0.632572
0.632576
0.632579
0.632583
0.632586
0.632586
0.632589
0.632593
0.632596
0.6326
0.6326
0.632603
0.632606
0.63261
0.632613
0.632613
0.632617
0.63262
0.632624
0.632627
0.632627
0.63263
0.632634
0.632637
0.632641
0.632641
0.632644
0.632648
0.632651
0.632655
0.632655
0.632658
0.632661
0.632665
0.632668
0.632668
0.632672
0.632675
0.632679
0.632682
0.632682
0.632686
0.632689
0.632693
0.632696
0.632696
0.6327
0.632703
0.632706
0.63271
0.63271
0.632713
0.632717
0.63272
0.632724
0.632724
0.632727
0.632731
0.632734
0.632738
0.632738
0.632741
0.632745
0.632748
0.632752
0.632752
0.632755
0.632759
0.632763
0.632766
0.632766
0.63277
0.632773
0.632777
0.63278
0.63278
0.632784
0.632787
0.632791
0.632794
0.632794
0.632798
0.632801
0.632805
0.632808
0.632808
0.632812
0.632816
0.632819
0.632823
0.632823
0.632826
0.63283
0.632833
0.632837
0.632837
0.63284
0.632844
0.632848
0.632851
0.632851
0.632855
0.632858
0.632862
0.632866
0.632866
0.632869
0.632873
0.632876
0.63288
0.63288
0.632883
0.632887
0.632891
0.632894
0.632894
0.632898
0.632901
0.632905
0.632909
0.632909
0.632912
0.632916
0.63292
0.632923
0.632923
0.632927
0.63293
0.632934
0.632938
0.632938
0.632941
0.632945
0.632949
0.632952
0.632952
0.632956
0.632959
0.632963
0.632967
0.632967
0.63297
0.632974
0.632978
0.632981
0.632981
0.632985
0.632989
0.632992
0.632996
0.632996
0.633
0.633003
0.633007
0.633011
0.633011
0.633014
0.633018
0.633022
0.633025
0.633025
0.633029
0.633033
0.633036
0.63304
0.63304
0.633044
0.633048
0.633051
0.633055
0.633055
0.633059
0.633062
0.633066
0.63307
0.63307
0.633073
0.633077
0.633081
0.633085
0.633085
0.633088
0.633092
0.633096
0.6331
0.6331
0.633103
0.633107
0.633111
0.633114
0.633114
0.633118
0.633122
0.633126
0.633129
0.633129
0.633133
0.633137
0.633141
0.633144
0.633144
0.633148
0.633152
0.633156
0.633159
0.633159
0.633163
0.633167
0.633171
0.633174
0.633174
0.633178
0.633182
0.633186
0.63319
0.63319
0.633193
0.633197
0.633201
0.633205
0.633205
0.633209
0.633212
0.633216
0.63322
0.63322
0.633224
0.633228
0.633231
0.633235
0.633235
0.633239
0.633243
0.633247
0.63325
0.63325
0.633254
0.633258
0.633262
0.633266
0.633266
0.63327
0.633273
0.633277
0.633281
0.633281
0.633285
0.633289
0.633293
0.633296
0.633296
0.6333
0.633304
0.633308
0.633312
0.633312
0.633316
0.633319
0.633323
0.633327
0.633327
0.633331
0.633335
0.633339
0.633343
0.633343
0.633347
0.63335
0.633354
0.633358
0.633358
0.633362
0.633366
0.63337
0.633374
0.633374
0.633378
0.633382
0.633385
0.633389
0.633389
0.633393
0.633397
0.633401
0.633405
0.633405
0.633409
0.633413
0.633417
0.633421
0.633421
0.633424
0.633428
0.633432
0.633436
0.633436
0.63344
0.633444
0.633448
0.633452
0.633452
0.633456
0.63346
0.633464
0.633468
0.633468
0.633472
0.633476
0.63348
0.633484
0.633484
0.633487
0.633491
0.633495
0.633499
0.633499
0.633503
0.633507
0.633511
0.633515
0.633515
0.633519
0.633523
0.633527
0.633531
0.633531
0.633535
0.633539
0.633543
0.633547
0.633547
0.633551
0.633555
0.633559
0.633563
0.633563
0.633567
0.633571
0.633575
0.633579
0.633579
0.633583
0.633587
0.633591
0.633595
0.633595
0.633599
0.633603
0.633607
0.633611
0.633611
0.633615
0.633619
0.633623
0.633627
0.633627
0.633631
0.633635
0.633639
0.633643
0.633643
0.633647
0.633651
0.633655
0.63366
0.63366
0.633664
0.633668
0.633672
0.633676
0.633676
0.63368
0.633684
0.633688
0.633692
0.633692
0.633696
0.6337
0.633704
0.633708
0.633708
0.633712
0.633716
0.633721
0.633725
0.633725
0.633729
0.633733
0.633737
0.633741
0.633741
0.633745
0.633749
0.633753
0.633757
0.633757
0.633761
0.633766
0.63377
0.633774
0.633774
0.633778
0.633782
0.633786
0.63379
0.63379
0.633794
0.633798
0.633803
0.633807
0.633807
0.633811
0.633815
0.633819
0.633823
0.633823
0.633827
0.633832
0.633836
0.63384
0.63384
0.633844
0.633848
0.633852
0.633856
0.633856
0.633861
0.633865
0.633869
0.633873
0.633873
0.633877
0.633881
0.633886
0.63389
0.63389
0.633894
0.633898
0.633902
0.633907
0.633907
0.633911
0.633915
0.633919
0.633923
0.633923
0.633927
0.633932
0.633936
0.63394
0.63394
0.633944
0.633948
0.633953
0.633957
0.633957
0.633961
0.633965
0.633969
0.633974
0.633974
0.633978
0.633982
0.633986
0.633991
0.633991
0.633995
0.633999
0.634003
0.634008
0.634008
0.634012
0.634016
0.63402
0.634025
0.634025
0.634029
0.634033
0.634037
0.634042
0.634042
0.634046
0.63405
0.634054
0.634059
0.634059
0.634063
0.634067
0.634071
0.634076
0.634076
0.63408
0.634084
0.634088
0.634093
0.634093
0.634097
0.634101
0.634106
0.63411
0.63411
0.634114
0.634118
0.634123
0.634127
0.634127
0.634131
0.634136
0.63414
0.634144
0.634144
0.634149
0.634153
0.634157
0.634162
0.634162
0.634166
0.63417
0.634174
0.634179
0.634179
0.634183
0.634187
0.634192
0.634196
0.634196
0.6342
0.634205
0.634209
0.634213
0.634213
0.634218
0.634222
0.634227
0.634231
0.634231
0.634235
0.63424
0.634244
0.634248
0.634248
0.634253
0.634257
0.634261
0.634266
0.634266
0.63427
0.634275
0.634279
0.634283
0.634283
0.634288
0.634292
0.634296
0.634301
0.634301
0.634305
0.63431
0.634314
0.634318
0.634318
0.634323
0.634327
0.634332
0.634336
0.634336
0.63434
0.634345
0.634349
0.634354
0.634354
0.634358
0.634362
0.634367
0.634371
0.634371
0.634376
0.63438
0.634385
0.634389
0.634389
0.634393
0.634398
0.634402
0.634407
0.634407
0.634411
0.634416
0.63442
0.634424
0.634424
0.634429
0.634433
0.634438
0.634442
0.634442
0.634447
0.634451
0.634456
0.63446
0.63446
0.634465
0.634469
0.634474
0.634478
0.634478
0.634483
0.634487
0.634492
0.634496
0.634496
0.6345
0.634505
0.634509
0.634514
0.634514
0.634518
0.634523
0.634527
0.634532
0.634532
0.634536
0.634541
0.634545
0.63455
0.63455
0.634555
0.634559
0.634564
0.634568
0.634568
0.634573
0.634577
0.634582
0.634586
0.634586
0.634591
0.634595
0.6346
0.634604
0.634604
0.634609
0.634613
0.634618
0.634622
0.634622
0.634627
0.634632
0.634636
0.634641
0.634641
0.634645
0.63465
0.634654
0.634659
0.634659
0.634663
0.634668
0.634673
0.634677
0.634677
0.634682
0.634686
0.634691
0.634695
0.634695
0.6347
0.634705
0.634709
0.634714
0.634714
0.634718
0.634723
0.634728
0.634732
0.634732
0.634737
0.634741
0.634746
0.634751
0.634751
0.634755
0.63476
0.634765
0.634769
0.634769
0.634774
0.634778
0.634783
0.634788
0.634788
0.634792
0.634797
0.634802
0.634806
0.634806
0.634811
0.634815
0.63482
0.634825
0.634825
0.634829
0.634834
0.634839
0.634843
0.634843
0.634848
0.634853
0.634857
0.634862
0.634862
0.634867
0.634871
0.634876
0.634881
0.634881
0.634885
0.63489
0.634895
0.634899
0.634899
0.634904
0.634909
0.634913
0.634918
0.634918
0.634923
0.634927
0.634932
0.634937
0.634937
0.634942
0.634946
0.634951
0.634956
0.634956
0.63496
0.634965
0.63497
0.634975
0.634975
0.634979
0.634984
0.634989
0.634993
0.634993
0.634998
0.635003
0.635008
0.635012
0.635012
0.635017
0.635022
0.635027
0.635031
0.635031
0.635036
0.635041
0.635046
0.63505
0.63505
0.635055
0.63506
0.635065
0.635069
0.635069
0.635074
0.635079
0.635084
0.635088
0.635088
0.635093
0.635098
0.635103
0.635107
0.635107
0.635112
0.635117
0.635122
0.635127
0.635127
0.635131
0.635136
0.635141
0.635146
0.635146
0.635151
0.635155
0.63516
0.635165
0.635165
0.63517
0.635175
0.635179
0.635184
0.635184
0.635189
0.635194
0.635199
0.635204
0.635204
0.635208
0.635213
0.635218
0.635223
0.635223
0.635228
0.635232
0.635237
0.635242
0.635242
0.635247
0.635252
0.635257
0.635262
0.635262
0.635266
0.635271
0.635276
0.635281
0.635281
0.635286
0.635291
0.635296
0.6353
0.6353
0.635305
0.63531
0.635315
0.63532
0.63532
0.635325
0.63533
0.635335
0.635339
0.635339
0.635344
0.635349
0.635354
0.635359
0.635359
0.635364
0.635369
0.635374
0.635379
0.635379
0.635384
0.635388
0.635393
0.635398
0.635398
0.635403
0.635408
0.635413
0.635418
0.635418
0.635423
0.635428
0.635433
0.635438
0.635438
0.635443
0.635448
0.635452
0.635457
0.635457
0.635462
0.635467
0.635472
0.635477
0.635477
0.635482
0.635487
0.635492
0.635497
0.635497
0.635502
0.635507
0.635512
0.635517
0.635517
0.635522
0.635527
0.635532
0.635537
0.635537
0.635542
0.635547
0.635552
0.635557
0.635557
0.635562
0.635567
0.635572
0.635577
0.635577
0.635582
0.635587
0.635592
0.635597
0.635597
0.635602
0.635607
0.635612
0.635617
0.635617
0.635622
0.635627
0.635632
0.635637
0.635637
0.635642
0.635647
0.635652
0.635657
0.635657
0.635662
0.635667
0.635672
0.635677
0.635677
0.635682
0.635687
0.635692
0.635697
0.635697
0.635702
0.635707
0.635712
0.635717
0.635717
0.635722
0.635727
0.635733
0.635738
0.635738
0.635743
0.635748
0.635753
0.635758
0.635758
0.635763
0.635768
0.635773
0.635778
0.635778
0.635783
0.635788
0.635793
0.635799
0.635799
0.635804
0.635809
0.635814
0.635819
0.635819
0.635824
0.635829
0.635834
0.635839
0.635839
0.635844
0.63585
0.635855
0.63586
0.63586
0.635865
0.63587
0.635875
0.63588
0.63588
0.635885
0.635891
0.635896
0.635901
0.635901
0.635906
0.635911
0.635916
0.635921
0.635921
0.635927
0.635932
0.635937
0.635942
0.635942
0.635947
0.635952
0.635957
0.635963
0.635963
0.635968
0.635973
0.635978
0.635983
0.635983
0.635989
0.635994
0.635999
0.636004
0.636004
0.636009
0.636014
0.63602
0.636025
0.636025
0.63603
0.636035
0.63604
0.636046
0.636046
0.636051
0.636056
0.636061
0.636066
0.636066
0.636072
0.636077
0.636082
0.636087
0.636087
0.636093
0.636098
0.636103
0.636108
0.636108
0.636113
0.636119
0.636124
0.636129
0.636129
0.636134
0.63614
0.636145
0.63615
0.63615
0.636155
0.636161
0.636166
0.636171
0.636171
0.636176
0.636182
0.636187
0.636192
0.636192
0.636197
0.636203
0.636208
0.636213
0.636213
0.636219
0.636224
0.636229
0.636234
0.636234
0.63624
0.636245
0.63625
0.636256
0.636256
0.636261
0.636266
0.636271
0.636277
0.636277
0.636282
0.636287
0.636293
0.636298
0.636298
0.636303
0.636309
0.636314
0.636319
0.636319
0.636325
0.63633
0.636335
0.636341
0.636341
0.636346
0.636351
0.636357
0.636362
0.636362
0.636367
0.636373
0.636378
0.636383
0.636383
0.636389
0.636394
0.636399
0.636405
0.636405
0.63641
0.636415
0.636421
0.636426
0.636426
0.636432
0.636437
0.636442
0.636448
0.636448
0.636453
0.636458
0.636464
0.636469
0.636469
0.636475
0.63648
0.636485
0.636491
0.636491
0.636496
0.636501
0.636507
0.636512
0.636512
0.636518
0.636523
0.636529
0.636534
0.636534
0.636539
0.636545
0.63655
0.636556
0.636556
0.636561
0.636566
0.636572
0.636577
0.636577
0.636583
0.636588
0.636594
0.636599
0.636599
0.636604
0.63661
0.636615
0.636621
0.636621
0.636626
0.636632
0.636637
0.636643
0.636643
0.636648
0.636654
0.636659
0.636665
0.636665
0.63667
0.636675
0.636681
0.636686
0.636686
0.636692
0.636697
0.636703
0.636708
0.636708
0.636714
0.636719
0.636725
0.63673
0.63673
0.636736
0.636741
0.636747
0.636752
0.636752
0.636758
0.636763
0.636769
0.636774
0.636774
0.63678
0.636785
0.636791
0.636796
0.636796
0.636802
0.636808
0.636813
0.636819
0.636819
0.636824
0.63683
0.636835
0.636841
0.636841
0.636846
0.636852
0.636857
0.636863
0.636863
0.636868
0.636874
0.63688
0.636885
0.636885
0.636891
0.636896
0.636902
0.636907
0.636907
0.636913
0.636919
0.636924
0.63693
0.63693
0.636935
0.636941
0.636946
0.636952
0.636952
0.636958
0.636963
0.636969
0.636974
0.636974
0.63698
0.636986
0.636991
0.636997
0.636997
0.637002
0.637008
0.637014
0.637019
0.637019
0.637025
0.637031
0.637036
0.637042
0.637042
0.637047
0.637053
0.637059
0.637064
0.637064
0.63707
0.637076
0.637081
0.637087
0.637087
0.637093
0.637098
0.637104
0.637109
0.637109
0.637115
0.637121
0.637126
0.637132
0.637132
0.637138
0.637143
0.637149
0.637155
0.637155
0.63716
0.637166
0.637172
0.637178
0.637178
0.637183
0.637189
0.637195
0.6372
0.6372
0.637206
0.637212
0.637217
0.637223
0.637223
0.637229
0.637234
0.63724
0.637246
0.637246
0.637252
0.637257
0.637263
0.637269
0.637269
0.637275
0.63728
0.637286
0.637292
0.637292
0.637297
0.637303
0.637309
0.637315
0.637315
0.63732
0.637326
0.637332
0.637338
0.637338
0.637343
0.637349
0.637355
0.637361
0.637361
0.637366
0.637372
0.637378
0.637384
0.637384
0.637389
0.637395
0.637401
0.637407
0.637407
0.637413
0.637418
0.637424
0.63743
0.63743
0.637436
0.637442
0.637447
0.637453
0.637453
0.637459
0.637465
0.637471
0.637476
0.637476
0.637482
0.637488
0.637494
0.6375
0.6375
0.637505
0.637511
0.637517
0.637523
0.637523
0.637529
0.637535
0.63754
0.637546
0.637546
0.637552
0.637558
0.637564
0.63757
0.63757
0.637575
0.637581
0.637587
0.637593
0.637593
0.637599
0.637605
0.637611
0.637616
0.637616
0.637622
0.637628
0.637634
0.63764
0.63764
0.637646
0.637652
0.637658
0.637663
0.637663
0.637669
0.637675
0.637681
0.637687
0.637687
0.637693
0.637699
0.637705
0.637711
0.637711
0.637717
0.637722
0.637728
0.637734
0.637734
0.63774
0.637746
0.637752
0.637758
0.637758
0.637764
0.63777
0.637776
0.637782
0.637782
0.637788
0.637794
0.637799
0.637805
0.637805
0.637811
0.637817
0.637823
0.637829
0.637829
0.637835
0.637841
0.637847
0.637853
0.637853
0.637859
0.637865
0.637871
0.637877
0.637877
0.637883
0.637889
0.637895
0.637901
0.637901
0.637907
0.637913
0.637919
0.637925
0.637925
0.637931
0.637937
0.637943
0.637949
0.637949
0.637955
0.637961
0.637967
0.637973
0.637973
0.637979
0.637985
0.637991
0.637997
0.637997
0.638003
0.638009
0.638015
0.638021
0.638021
0.638027
0.638033
0.638039
0.638045
0.638045
0.638051
0.638057
0.638063
0.638069
0.638069
0.638075
0.638081
0.638087
0.638094
0.638094
0.6381
0.638106
0.638112
0.638118
0.638118
0.638124
0.63813
0.638136
0.638142
0.638142
0.638148
0.638154
0.63816
0.638166
0.638166
0.638173
0.638179
0.638185
0.638191
0.638191
0.638197
0.638203
0.638209
0.638215
0.638215
0.638221
0.638227
0.638234
0.63824
0.63824
0.638246
0.638252
0.638258
0.638264
0.638264
0.63827
0.638276
0.638283
0.638289
0.638289
0.638295
0.638301
0.638307
0.638313
0.638313
0.638319
0.638326
0.638332
0.638338
0.638338
0.638344
0.63835
0.638356
0.638363
0.638363
0.638369
0.638375
0.638381
0.638387
0.638387
0.638393
0.6384
0.638406
0.638412
0.638412
0.638418
0.638424
0.638431
0.638437
0.638437
0.638443
0.638449
0.638455
0.638462
0.638462
0.638468
0.638474
0.63848
0.638487
0.638487
0.638493
0.638499
0.638505
0.638511
0.638511
0.638518
0.638524
0.63853
0.638536
0.638536
0.638543
0.638549
0.638555
0.638561
0.638561
0.638568
0.638574
0.63858
0.638586
0.638586
0.638593
0.638599
0.638605
0.638611
0.638611
0.638618
0.638624
0.63863
0.638637
0.638637
0.638643
0.638649
0.638655
0.638662
0.638662
0.638668
0.638674