<?xml version="1.0"?>
<VTKFile type="UnstructuredGrid" version="0.1" byte_order="LittleEndian">
<UnstructuredGrid>
<Piece NumberOfPoints="5000" NumberOfCells="4000">
<PointData Scalars="Reaction 0">
<DataArray type="Float32" Name="Reaction 0" format="ascii">
0.505262
0.505262
0.505262
0.505262
0.505263
0.505263
0.505263
0.505263
0.505263
0.505263
0.505263
0.505264
0.505264
0.505264
0.505265
0.505265
0.505265
0.505266
0.505266
0.505267
0.505267
0.505267
0.505268
0.505269
0.505269
0.505269
0.50527
0.505271
0.505272
0.505272
0.505272
0.505273
0.505274
0.505275
0.505276
0.505276
0.505277
0.505278
0.505279
0.50528
0.50528
0.505281
0.505283
0.505284
0.505285
0.505285
0.505286
0.505288
0.505289
0.50529
0.50529
0.505292
0.505293
0.505295
0.505296
0.505296
0.505298
0.505299
0.505301
0.505303
0.505303
0.505304
0.505306
0.505308
0.50531
0.50531
0.505311
0.505313
0.505315
0.505317
0.505317
0.505319
0.505321
0.505323
0.505325
0.505325
0.505327
0.50533
0.505332
0.505334
0.505334
0.505336
0.505339
0.505341
0.505343
0.505343
0.505346
0.505348
0.505351
0.505353
0.505353
0.505356
0.505358
0.505361
0.505363
0.505363
0.505366
0.505369
0.505372
0.505374
0.505374
0.505377
0.50538
0.505383
0.505386
0.505386
0.505389
0.505392
0.505395
0.505398
0.505398
0.505401
0.505404
0.505407
0.50541
0.50541
0.505414
0.505417
0.50542
0.505424
0.505424
0.505427
0.50543
0.505434
0.505437
0.505437
0.505441
0.505444
0.505448
0.505452
0.505452
0.505455
0.505459
0.505463
0.505466
0.505466
0.50547
0.505474
0.505478
0.505482
0.505482
0.505486
0.50549
0.505494
0.505498
0.505498
0.505502
0.505506
0.50551
0.505514
0.505514
0.505519
0.505523
0.505527
0.505531
0.505531
0.505536
0.50554
0.505545
0.505549
0.505549
0.505554
0.505558
0.505563
0.505567
0.505567
0.505572
0.505577
0.505581
0.505586
0.505586
0.505591
0.505596
0.505601
0.505605
0.505605
0.50561
0.505615
0.50562
0.505625
0.505625
0.50563
0.505635
0.505641
0.505646
0.505646
0.505651
0.505656
0.505661
0.505667
0.505667
0.505672
0.505678
0.505683
0.505688
0.505688
0.505694
0.505699
0.505705
0.505711
0.505711
0.505716
0.505722
0.505727
0.505733
0.505733
0.505739
0.505745
0.505751
0.505756
0.505756
0.505762
0.505768
0.505774
0.50578
0.50578
0.505786
0.505792
0.505799
0.505805
0.505805
0.505811
0.505817
0.505823
0.50583
0.50583
0.505836
0.505842
0.505849
0.505855
0.505855
0.505862
0.505868
0.505875
0.505881
0.505881
0.505888
0.505894
0.505901
0.505908
0.505908
0.505915
0.505921
0.505928
0.505935
0.505935
0.505942
0.505949
0.505956
0.505963
0.505963
0.50597
0.505977
0.505984
0.505991
0.505991
0.505998
0.506005
0.506013
0.50602
0.50602
0.506027
0.506035
0.506042
0.506049
0.506049
0.506057
0.506064
0.506072
0.506079
0.506079
0.506087
0.506095
0.506102
0.50611
0.50611
0.506118
0.506125
0.506133
0.506141
0.506141
0.506149
0.506157
0.506165
0.506173
0.506173
0.506181
0.506189
0.506197
0.506205
0.506205
0.506213
0.506221
0.50623
0.506238
0.506238
0.506246
0.506254
0.506263
0.506271
0.506271
0.50628
0.506288
0.506297
0.506305
0.506305
0.506314
0.506322
0.506331
0.50634
0.50634
0.506348
0.506357
0.506366
0.506375
0.506375
0.506384
0.506392
0.506401
0.50641
0.50641
0.506419
0.506428
0.506437
0.506447
0.506447
0.506456
0.506465
0.506474
0.506483
0.506483
0.506493
0.506502
0.506511
0.506521
0.506521
0.50653
0.506539
0.506549
0.506559
0.506559
0.506568
0.506578
0.506587
0.506597
0.506597
0.506607
0.506616
0.506626
0.506636
0.506636
0.506646
0.506656
0.506666
0.506676
0.506676
0.506686
0.506696
0.506706
0.506716
0.506716
0.506726
0.506736
0.506746
0.506756
0.506756
0.506767
0.506777
0.506787
0.506798
0.506798
0.506808
0.506818
0.506829
0.506839
0.506839
0.50685
0.506861
0.506871
0.506882
0.506882
0.506893
0.506903
0.506914
0.506925
0.506925
0.506936
0.506946
0.506957
0.506968
0.506968
0.506979
0.50699
0.507001
0.507012
0.507012
0.507024
0.507035
0.507046
0.507057
0.507057
0.507068
0.50708
0.507091
0.507102
0.507102
0.507114
0.507125
0.507137
0.507148
0.507148
0.50716
0.507171
0.507183
0.507194
0.507194
0.507206
0.507218
0.50723
0.507241
0.507241
0.507253
0.507265
0.507277
0.507289
0.507289
0.507301
0.507313
0.507325
0.507337
0.507337
0.507349
0.507361
0.507373
0.507385
0.507385
0.507398
0.50741
0.507422
0.507435
0.507435
0.507447
0.507459
0.507472
0.507484
0.507484
0.507497
0.507509
0.507522
0.507535
0.507535
0.507547
0.50756
0.507573
0.507585
0.507585
0.507598
0.507611
0.507624
0.507637
0.507637
0.50765
0.507663
0.507676
0.507689
0.507689
0.507702
0.507715
0.507728
0.507741
0.507741
0.507755
0.507768
0.507781
0.507795
0.507795
0.507808
0.507821
0.507835
0.507848
0.507848
0.507862
0.507875
0.507889
0.507903
0.507903
0.507916
0.50793
0.507944
0.507957
0.507957
0.507971
0.507985
0.507999
0.508013
0.508013
0.508027
0.508041
0.508055
0.508069
0.508069
0.508083
0.508097
0.508111
0.508125
0.508125
0.50814
0.508154
0.508168
0.508182
0.508182
0.508197
0.508211
0.508226
0.50824
0.50824
0.508255
0.508269
0.508284
0.508298
0.508298
0.508313
0.508328
0.508342
0.508357
0.508357
0.508372
0.508387
0.508402
0.508416
0.508416
0.508431
0.508446
0.508461
0.508476
0.508476
0.508491
0.508507
0.508522
0.508537
0.508537
0.508552
0.508567
0.508583
0.508598
0.508598
0.508613
0.508629
0.508644
0.50866
0.50866
0.508675
0.508691
0.508706
0.508722
0.508722
0.508737
0.508753
0.508769
0.508785
0.508785
0.5088
0.508816
0.508832
0.508848
0.508848
0.508864
0.50888
0.508896
0.508912
0.508912
0.508928
0.508944
0.50896
0.508976
0.508976
0.508993
0.509009
0.509025
0.509041
0.509041
0.509058
0.509074
0.509091
0.509107
0.509107
0.509124
0.50914
0.509157
0.509173
0.509173
0.50919
0.509207
0.509223
0.50924
0.50924
0.509257
0.509274
0.509291
0.509307
0.509307
0.509324
0.509341
0.509358
0.509375
0.509375
0.509392
0.509409
0.509427
0.509444
0.509444
0.509461
0.509478
0.509496
0.509513
0.509513
0.50953
0.509548
0.509565
0.509582
0.509582
0.5096
0.509617
0.509635
0.509653
0.509653
0.50967
0.509688
0.509706
0.509723
0.509723
0.509741
0.509759
0.509777
0.509795
0.509795
0.509813
0.509831
0.509849
0.509867
0.509867
0.509885
0.509903
0.509921
0.509939
0.509939
0.509957
0.509976
0.509994
0.510012
0.510012
0.510031
0.510049
0.510067
0.510086
0.510086
0.510104
0.510123
0.510141
0.51016
0.51016
0.510179
0.510197
0.510216
0.510235
0.510235
0.510254
0.510272
0.510291
0.51031
0.51031
0.510329
0.510348
0.510367
0.510386
0.510386
0.510405
0.510424
0.510443
0.510463
0.510463
0.510482
0.510501
0.51052
0.51054
0.51054
0.510559
0.510578
0.510598
0.510617
0.510617
0.510637
0.510656
0.510676
0.510695
0.510695
0.510715
0.510735
0.510755
0.510774
0.510774
0.510794
0.510814
0.510834
0.510854
0.510854
0.510874
0.510894
0.510914
0.510934
0.510934
0.510954
0.510974
0.510994
0.511014
0.511014
0.511034
0.511055
0.511075
0.511095
0.511095
0.511116
0.511136
0.511156
0.511177
0.511177
0.511197
0.511218
0.511238
0.511259
0.511259
0.51128
0.5113
0.511321
0.511342
0.511342
0.511363
0.511383
0.511404
0.511425
0.511425
0.511446
0.511467
0.511488
0.511509
0.511509
0.51153
0.511551
0.511573
0.511594
0.511594
0.511615
0.511636
0.511658
0.511679
0.511679
0.5117
0.511722
0.511743
0.511765
0.511765
0.511786
0.511808
0.511829
0.511851
0.511851
0.511872
0.511894
0.511916
0.511938
0.511938
0.511959
0.511981
0.512003
0.512025
0.512025
0.512047
0.512069
0.512091
0.512113
0.512113
0.512135
0.512157
0.512179
0.512202
0.512202
0.512224
0.512246
0.512269
0.512291
0.512291
0.512313
0.512336
0.512358
0.512381
0.512381
0.512403
0.512426
0.512448
0.512471
0.512471
0.512494
0.512516
0.512539
0.512562
0.512562
0.512585
0.512607
0.51263
0.512653
0.512653
0.512676
0.512699
0.512722
0.512745
0.512745
0.512768
0.512792
0.512815
0.512838
0.512838
0.512861
0.512884
0.512908
0.512931
0.512931
0.512955
0.512978
0.513001
0.513025
0.513025
0.513048
0.513072
0.513096
0.513119
0.513119
0.513143
0.513167
0.51319
0.513214
0.513214
0.513238
0.513262
0.513286
0.51331
0.51331
0.513334
0.513358
0.513382
0.513406
0.513406
0.51343
0.513454
0.513478
0.513503
0.513503
0.513527
0.513551
0.513576
0.5136
0.5136
0.513624
0.513649
0.513673
0.513698
0.513698
0.513722
0.513747
0.513772
0.513796
0.513796
0.513821
0.513846
0.51387
0.513895
0.513895
0.51392
0.513945
0.51397
0.513995
0.513995
0.51402
0.514045
0.51407
0.514095
0.514095
0.51412
0.514145
0.514171
0.514196
0.514196
0.514221
0.514246
0.514272
0.514297
0.514297
0.514323
0.514348
0.514374
0.514399
0.514399
0.514425
0.51445
0.514476
0.514502
0.514502
0.514527
0.514553
0.514579
0.514605
0.514605
0.514631
0.514656
0.514682
0.514708
0.514708
0.514734
0.51476
0.514787
0.514813
0.514813
0.514839
0.514865
0.514891
0.514918
0.514918
0.514944
0.51497
0.514997
0.515023
0.515023
0.515049
0.515076
0.515102
0.515129
0.515129
0.515156
0.515182
0.515209
0.515236
0.515236
0.515262
0.515289
0.515316
0.515343
0.515343
0.51537
0.515397
0.515424
0.515451
0.515451
0.515478
0.515505
0.515532
0.515559
0.515559
0.515586
0.515613
0.515641
0.515668
0.515668
0.515695
0.515723
0.51575
0.515778
0.515778
0.515805
0.515833
0.51586
0.515888
0.515888
0.515915
0.515943
0.515971
0.515998
0.515998
0.516026
0.516054
0.516082
0.51611
0.51611
0.516138
0.516166
0.516194
0.516222
0.516222
0.51625
0.516278
0.516306
0.516334
0.516334
0.516362
0.516391
0.516419
0.516447
0.516447
0.516476
0.516504
0.516532
0.516561
0.516561
0.516589
0.516618
0.516646
0.516675
0.516675
0.516704
0.516732
0.516761
0.51679
0.51679
0.516819
0.516848
0.516876
0.516905
0.516905
0.516934
0.516963
0.516992
0.517021
0.517021
0.517051
0.51708
0.517109
0.517138
0.517138
0.517167
0.517197
0.517226
0.517255
0.517255
0.517285
0.517314
0.517344
0.517373
0.517373
0.517403
0.517432
0.517462
0.517491
0.517491
0.517521
0.517551
0.517581
0.51761
0.51761
0.51764
0.51767
0.5177
0.51773
0.51773
0.51776
0.51779
0.51782
0.51785
0.51785
0.51788
0.517911
0.517941
0.517971
0.517971
0.518001
0.518032
0.518062
0.518092
0.518092
0.518123
0.518153
0.518184
0.518214
0.518214
0.518245
0.518276
0.518306
0.518337
0.518337
0.518368
0.518398
0.518429
0.51846
0.51846
0.518491
0.518522
0.518553
0.518584
0.518584
0.518615
0.518646
0.518677
0.518708
0.518708
0.518739
0.518771
0.518802
0.518833
0.518833
0.518864
0.518896
0.518927
0.518959
0.518959
0.51899
0.519022
0.519053
0.519085
0.519085
0.519116
0.519148
0.51918
0.519211
0.519211
0.519243
0.519275
0.519307
0.519339
0.519339
0.519371
0.519403
0.519435
0.519467
0.519467
0.519499
0.519531
0.519563
0.519595
0.519595
0.519627
0.51966
0.519692
0.519724
0.519724
0.519757
0.519789
0.519822
0.519854
0.519854
0.519887
0.519919
0.519952
0.519984
0.519984
0.520017
0.52005
0.520082
0.520115
0.520115
0.520148
0.520181
0.520214
0.520247
0.520247
0.52028
0.520313
0.520346
0.520379
0.520379
0.520412
0.520445
0.520478
0.520512
0.520512
0.520545
0.520578
0.520611
0.520645
0.520645
0.520678
0.520712
0.520745
0.520779
0.520779
0.520812
0.520846
0.52088
0.520913
0.520913
0.520947
0.520981
0.521015
0.521048
0.521048
0.521082
0.521116
0.52115
0.521184
0.521184
0.521218
0.521252
0.521286
0.52132
0.52132
0.521355
0.521389
0.521423
0.521457
0.521457
0.521492
0.521526
0.52156
0.521595
0.521595
0.521629
0.521664
0.521698
0.521733
0.521733
0.521768
0.521802
0.521837
0.521872
0.521872
0.521907
0.521941
0.521976
0.522011
0.522011
0.522046
0.522081
0.522116
0.522151
0.522151
0.522186
0.522221
0.522256
0.522292
0.522292
0.522327
0.522362
0.522397
0.522433
0.522433
0.522468
0.522504
0.522539
0.522574
0.522574
0.52261
0.522646
0.522681
0.522717
0.522717
0.522753
0.522788
0.522824
0.52286
0.52286
0.522896
0.522932
0.522967
0.523003
0.523003
0.523039
0.523075
0.523111
0.523148
0.523148
0.523184
0.52322
0.523256
0.523292
0.523292
0.523329
0.523365
0.523401
0.523438
0.523438
0.523474
0.523511
0.523547
0.523584
0.523584
0.52362
0.523657
0.523694
0.52373
0.52373
0.523767
0.523804
0.523841
0.523878
0.523878
0.523915
0.523951
0.523988
0.524025
0.524025
0.524063
0.5241
0.524137
0.524174
0.524174
0.524211
0.524248
0.524286
0.524323
0.524323
0.52436
0.524398
0.524435
0.524473
0.524473
0.52451
0.524548
0.524585
0.524623
0.524623
0.524661
0.524698
0.524736
0.524774
0.524774
0.524812
0.52485
0.524887
0.524925
0.524925
0.524963
0.525001
0.525039
0.525077
0.525077
0.525116
0.525154
0.525192
0.52523
0.52523
0.525268
0.525307
0.525345
0.525384
0.525384
0.525422
0.52546
0.525499
0.525538
0.525538
0.525576
0.525615
0.525653
0.525692
0.525692
0.525731
0.52577
0.525808
0.525847
0.525847
0.525886
0.525925
0.525964
0.526003
0.526003
0.526042
0.526081
0.52612
0.52616
0.52616
0.526199
0.526238
0.526277
0.526317
0.526317
0.526356
0.526395
0.526435
0.526474
0.526474
0.526514
0.526553
0.526593
0.526633
0.526633
0.526672
0.526712
0.526752
0.526791
0.526791
0.526831
0.526871
0.526911
0.526951
0.526951
0.526991
0.527031
0.527071
0.527111
0.527111
0.527151
0.527191
0.527232
0.527272
0.527272
0.527312
0.527352
0.527393
0.527433
0.527433
0.527474
0.527514
0.527555
0.527595
0.527595
0.527636
0.527676
0.527717
0.527758
0.527758
0.527799
0.527839
0.52788
0.527921
0.527921
0.527962
0.528003
0.528044
0.528085
0.528085
0.528126
0.528167
0.528208
0.528249
0.528249
0.528291
0.528332
0.528373
0.528414
0.528414
0.528456
0.528497
0.528539
0.52858
0.52858
0.528622
0.528663
0.528705
0.528747
0.528747
0.528788
0.52883
0.528872
0.528914
0.528914
0.528955
0.528997
0.529039
0.529081
0.529081
0.529123
0.529165
0.529207
0.529249
0.529249
0.529291
0.529334
0.529376
0.529418
0.529418
0.52946
0.529503
0.529545
0.529588
0.529588
0.52963
0.529673
0.529715
0.529758
0.529758
0.5298
0.529843
0.529886
0.529928
0.529928
0.529971
0.530014
0.530057
0.5301
0.5301
0.530143
0.530186
0.530229
0.530272
0.530272
0.530315
0.530358
0.530401
0.530444
0.530444
0.530488
0.530531
0.530574
0.530618
0.530618
0.530661
0.530705
0.530748
0.530792
0.530792
0.530835
0.530879
0.530922
0.530966
0.530966
0.53101
0.531054
0.531097
0.531141
0.531141
0.531185
0.531229
0.531273
0.531317
0.531317
0.531361
0.531405
0.531449
0.531493
0.531493
0.531538
0.531582
0.531626
0.53167
0.53167
0.531715
0.531759
0.531804
0.531848
0.531848
0.531893
0.531937
0.531982
0.532026
0.532026
0.532071
0.532116
0.53216
0.532205
0.532205
0.53225
0.532295
0.53234
0.532385
0.532385
0.53243
0.532475
0.53252
0.532565
0.532565
0.53261
0.532655
0.532701
0.532746
0.532746
0.532791
0.532836
0.532882
0.532927
0.532927
0.532973
0.533018
0.533064
0.533109
0.533109
0.533155
0.533201
0.533246
0.533292
0.533292
0.533338
0.533384
0.53343
0.533476
0.533476
0.533521
0.533567
0.533613
0.53366
0.53366
0.533706
0.533752
0.533798
0.533844
0.533844
0.53389
0.533937
0.533983
0.534029
0.534029
0.534076
0.534122
0.534169
0.534215
0.534215
0.534262
0.534309
0.534355
0.534402
0.534402
0.534449
0.534496
0.534542
0.534589
0.534589
0.534636
0.534683
0.53473
0.534777
0.534777
0.534824
0.534871
0.534918
0.534966
0.534966
0.535013
0.53506
0.535107
0.535155
0.535155
0.535202
0.535249
0.535297
0.535344
0.535344
0.535392
0.53544
0.535487
0.535535
0.535535
0.535583
0.53563
0.535678
0.535726
0.535726
0.535774
0.535822
0.53587
0.535918
0.535918
0.535966
0.536014
0.536062
0.53611
0.53611
0.536158
0.536206
0.536255
0.536303
0.536303
0.536351
0.5364
0.536448
0.536497
0.536497
0.536545
0.536594
0.536642
0.536691
0.536691
0.53674
0.536788
0.536837
0.536886
0.536886
0.536935
0.536984
0.537033
0.537082
0.537082
0.537131
0.53718
0.537229
0.537278
0.537278
0.537327
0.537376
0.537425
0.537475
0.537475
0.537524
0.537573
0.537623
0.537672
0.537672
0.537722
0.537771
0.537821
0.53787
0.53787
0.53792
0.53797
0.538019
0.538069
0.538069
0.538119
0.538169
0.538219
0.538269
0.538269
0.538319
0.538369
0.538419
0.538469
0.538469
0.538519
0.538569
0.538619
0.53867
0.53867
0.53872
0.53877
0.538821
0.538871
0.538871
0.538922
0.538972
0.539023
0.539073
0.539073
0.539124
0.539175
0.539225
0.539276
0.539276
0.539327
0.539378
0.539429
0.539479
0.539479
0.53953
0.539581
0.539632
0.539684
0.539684
0.539735
0.539786
0.539837
0.539888
0.539888
0.53994
0.539991
0.540042
0.540094
0.540094
0.540145
0.540197
0.540248
0.5403
0.5403
0.540351
0.540403
0.540455
0.540506
0.540506
0.540558
0.54061
0.540662
0.540714
0.540714
0.540766
0.540818
0.54087
0.540922
0.540922
0.540974
0.541026
0.541078
0.541131
0.541131
0.541183
0.541235
0.541288
0.54134
0.54134
0.541392
0.541445
0.541497
0.54155
0.54155
0.541603
0.541655
0.541708
0.541761
0.541761
0.541813
0.541866
0.541919
0.541972
0.541972
0.542025
0.542078
0.542131
0.542184
0.542184
0.542237
0.54229
0.542343
0.542397
0.542397
0.54245
0.542503
0.542557
0.54261
0.54261
0.542663
0.542717
0.54277
0.542824
0.542824
0.542878
0.542931
0.542985
0.543039
0.543039
0.543092
0.543146
0.5432
0.543254
0.543254
0.543308
0.543362
0.543416
0.54347
0.54347
0.543524
0.543578
0.543632
0.543687
0.543687
0.543741
0.543795
0.54385
0.543904
0.543904
0.543958
0.544013
0.544067
0.544122
0.544122
0.544177
0.544231
0.544286
0.544341
0.544341
0.544395
0.54445
0.544505
0.54456
0.54456
0.544615
0.54467
0.544725
0.54478
0.54478
0.544835
0.54489
0.544946
0.545001
0.545001
0.545056
0.545111
0.545167
0.545222
0.545222
0.545278
0.545333
0.545389
0.545444
0.545444
0.5455
0.545556
0.545611
0.545667
0.545667
0.545723
0.545779
0.545834
0.54589
0.54589
0.545946
0.546002
0.546058
0.546114
0.546114
0.546171
0.546227
0.546283
0.546339
0.546339
0.546395
0.546452
0.546508
0.546565
0.546565
0.546621
0.546678
0.546734
0.546791
0.546791
0.546847
0.546904
0.546961
0.547018
0.547018
0.547074
0.547131
0.547188
0.547245
0.547245
0.547302
0.547359
0.547416
0.547473
0.547473
0.54753
0.547587
0.547645
0.547702
0.547702
0.547759
0.547817
0.547874
0.547931
0.547931
0.547989
0.548047
0.548104
0.548162
0.548162
0.548219
0.548277
0.548335
0.548393
0.548393
0.54845
0.548508
0.548566
0.548624
0.548624
0.548682
0.54874
0.548798
0.548856
0.548856
0.548915
0.548973
0.549031
0.549089
0.549089
0.549148
0.549206
0.549264
0.549323
0.549323
0.549381
0.54944
0.549499
0.549557
0.549557
0.549616
0.549675
0.549733
0.549792
0.549792
0.549851
0.54991
0.549969
0.550028
0.550028
0.550087
0.550146
0.550205
0.550264
0.550264
0.550324
0.550383
0.550442
0.550501
0.550501
0.550561
0.55062
0.55068
0.550739
0.550739
0.550799
0.550858
0.550918
0.550978
0.550978
0.551037
0.551097
0.551157
0.551217
0.551217
0.551277
0.551337
0.551397
0.551457
0.551457
0.551517
0.551577
0.551637
0.551697
0.551697
0.551757
0.551818
0.551878
0.551938
0.551938
0.551999
0.552059
0.55212
0.55218
0.55218
0.552241
0.552302
0.552362
0.552423
0.552423
0.552484
0.552545
0.552605
0.552666
0.552666
0.552727
0.552788
0.552849
0.55291
0.55291
0.552971
0.553033
0.553094
0.553155
0.553155
0.553216
0.553278
0.553339
0.5534
0.5534
0.553462
0.553523
0.553585
0.553647
0.553647
0.553708
0.55377
0.553832
0.553893
0.553893
0.553955
0.554017
0.554079
0.554141
0.554141
0.554203
0.554265
0.554327
0.554389
0.554389
0.554451
0.554514
0.554576
0.554638
0.554638
0.5547
0.554763
0.554825
0.554888
0.554888
0.55495
0.555013
0.555075
0.555138
0.555138
0.555201
0.555263
0.555326
0.555389
0.555389
0.555452
0.555515
0.555578
0.555641
0.555641
0.555704
0.555767
0.55583
0.555893
0.555893
0.555957
0.55602
0.556083
0.556147
0.556147
0.55621
0.556273
0.556337
0.5564
0.5564
0.556464
0.556528
0.556591
0.556655
0.556655
0.556719
0.556783
0.556846
0.55691
0.55691
0.556974
0.557038
0.557102
0.557166
0.557166
0.55723
0.557295
0.557359
0.557423
0.557423
0.557487
0.557552
0.557616
0.557681
0.557681
0.557745
0.55781
0.557874
0.557939
0.557939
0.558003
0.558068
0.558133
0.558198
0.558198
0.558262
0.558327
0.558392
0.558457
0.558457
0.558522
0.558587
0.558652
0.558718
0.558718
0.558783
0.558848
0.558913
0.558979
0.558979
0.559044
0.559109
0.559175
0.55924
0.55924
0.559306
0.559371
0.559437
0.559503
0.559503
0.559569
0.559634
0.5597
0.559766
0.559766
0.559832
0.559898
0.559964
0.560029
0.560029
0.560093
0.560156
0.56022
0.560284
0.560284
0.560347
0.560411
0.560475
0.560539
0.560539
0.560603
0.560667
0.560731
0.560795
0.560795
0.56086
0.560924
0.560988
0.561052
0.561052
0.561117
0.561181
0.561245
0.56131
0.56131
0.561373
0.561436
0.561498
0.56156
0.56156
0.561621
0.561683
0.561744
0.561806
0.561806
0.561867
0.561929
0.561991
0.562053
0.562053
0.562114
0.562176
0.562238
0.5623
0.5623
0.562362
0.562424
0.562486
0.562548
0.562548
0.56261
0.562672
0.562732
0.562793
0.562793
0.562852
0.562911
0.56297
0.563029
0.563029
0.563088
0.563147
0.563206
0.563265
0.563265
0.563325
0.563384
0.563443
0.563502
0.563502
0.563562
0.563621
0.563681
0.56374
0.56374
0.5638
0.563859
0.563918
0.563977
0.563977
0.564034
0.564091
0.564148
0.564204
0.564204
0.564261
0.564317
0.564374
0.56443
0.56443
0.564487
0.564544
0.5646
0.564657
0.564657
0.564714
0.564771
0.564827
0.564884
0.564884
0.564941
0.564998
0.565055
0.565111
0.565111
0.565167
0.565222
0.565277
0.565331
0.565331
0.565385
0.565439
0.565493
0.565547
0.565547
0.565602
0.565656
0.56571
0.565764
0.565764
0.565818
0.565872
0.565927
0.565981
0.565981
0.566035
0.566089
0.566144
0.566198
0.566198
0.566252
0.566305
0.566358
0.56641
0.56641
0.566462
0.566513
0.566565
0.566616
0.566616
0.566668
0.56672
0.566771
0.566823
0.566823
0.566875
0.566927
0.566978
0.56703
0.56703
0.567082
0.567134
0.567186
0.567237
0.567237
0.567289
0.56734
0.567391
0.567441
0.567441
0.56749
0.56754
0.567589
0.567638
0.567638
0.567688
0.567737
0.567786
0.567836
0.567836
0.567885
0.567934
0.567984
0.568033
0.568033
0.568082
0.568132
0.568181
0.568231
0.568231
0.56828
0.568329
0.568377
0.568425
0.568425
0.568473
0.56852
0.568567
0.568614
0.568614
0.568661
0.568708
0.568755
0.568802
0.568802
0.568849
0.568896
0.568943
0.568991
0.568991
0.569038
0.569085
0.569132
0.569179
0.569179
0.569226
0.569273
0.569319
0.569365
0.569365
0.56941
0.569455
0.5695
0.569545
0.569545
0.56959
0.569635
0.56968
0.569724
0.569724
0.569769
0.569814
0.569859
0.569904
0.569904
0.569949
0.569994
0.570039
0.570083
0.570083
0.570128
0.570173
0.570217
0.57026
0.57026
0.570304
0.570347
0.57039
0.570433
0.570433
0.570475
0.570518
0.570561
0.570603
0.570603
0.570646
0.570689
0.570731
0.570774
0.570774
0.570817
0.57086
0.570902
0.570945
0.570945
0.570988
0.57103
0.571072
0.571114
0.571114
0.571155
0.571196
0.571237
0.571277
0.571277
0.571318
0.571359
0.571399
0.57144
0.57144
0.571481
0.571521
0.571562
0.571603
0.571603
0.571644
0.571684
0.571725
0.571766
0.571766
0.571806
0.571846
0.571886
0.571925
0.571925
0.571965
0.572004
0.572043
0.572081
0.572081
0.57212
0.572159
0.572198
0.572236
0.572236
0.572275
0.572314
0.572353
0.572391
0.572391
0.57243
0.572469
0.572507
0.572546
0.572546
0.572584
0.572622
0.57266
0.572698
0.572698
0.572735
0.572772
0.572809
0.572846
0.572846
0.572883
0.572919
0.572956
0.572993
0.572993
0.57303
0.573067
0.573104
0.573141
0.573141
0.573178
0.573214
0.573251
0.573288
0.573288
0.573324
0.57336
0.573396
0.573431
0.573431
0.573466
0.573502
0.573537
0.573572
0.573572
0.573607
0.573642
0.573677
0.573712
0.573712
0.573747
0.573782
0.573818
0.573853
0.573853
0.573888
0.573923
0.573957
0.573992
0.573992
0.574026
0.57406
0.574094
0.574128
0.574128
0.574161
0.574195
0.574228
0.574261
0.574261
0.574295
0.574328
0.574362
0.574395
0.574395
0.574428
0.574462
0.574495
0.574528
0.574528
0.574562
0.574594
0.574627
0.57466
0.57466
0.574692
0.574725
0.574757
0.574788
0.574788
0.57482
0.574852
0.574884
0.574916
0.574916
0.574947
0.574979
0.575011
0.575043
0.575043
0.575074
0.575106
0.575138
0.575169
0.575169
0.5752
0.575232
0.575263
0.575293
0.575293
0.575324
0.575354
0.575385
0.575415
0.575415
0.575445
0.575476
0.575506
0.575536
0.575536
0.575566
0.575596
0.575627
0.575657
0.575657
0.575687
0.575717
0.575747
0.575776
0.575776
0.575806
0.575835
0.575865
0.575894
0.575894
0.575923
0.575951
0.57598
0.576009
0.576009
0.576038
0.576066
0.576095
0.576124
0.576124
0.576153
0.576181
0.57621
0.576238
0.576238
0.576267
0.576295
0.576324
0.576352
0.576352
0.576379
0.576407
0.576435
0.576462
0.576462
0.57649
0.576517
0.576544
0.576572
0.576572
0.576599
0.576626
0.576653
0.576681
0.576681
0.576708
0.576735
0.576762
0.576789
0.576789
0.576816
0.576843
0.576869
0.576896
0.576896
0.576922
0.576948
0.576974
0.577
0.577
0.577026
0.577052
0.577078
0.577104
0.577104
0.57713
0.577156
0.577182
0.577208
0.577208
0.577234
0.577259
0.577285
0.57731
0.57731
0.577336
0.577361
0.577386
0.577411
0.577411
0.577435
0.57746
0.577485
0.57751
0.57751
0.577534
0.577559
0.577584
0.577608
0.577608
0.577633
0.577658
0.577682
0.577707
0.577707
0.577731
0.577755
0.577779
0.577803
0.577803
0.577827
0.57785
0.577874
0.577898
0.577898
0.577921
0.577945
0.577968
0.577992
0.577992
0.578015
0.578039
0.578062
0.578085
0.578085
0.578109
0.578132
0.578155
0.578178
0.578178
0.578201
0.578223
0.578246
0.578269
0.578269
0.578291
0.578313
0.578336
0.578358
0.578358
0.578381
0.578403
0.578425
0.578447
0.578447
0.57847
0.578492
0.578514
0.578536
0.578536
0.578558
0.57858
0.578601
0.578623
0.578623
0.578645
0.578666
0.578687
0.578709
0.578709
0.57873
0.578751
0.578772
0.578794
0.578794
0.578815
0.578836
0.578857
0.578878
0.578878
0.578899
0.57892
0.578941
0.578962
0.578962
0.578982
0.579003
0.579023
0.579044
0.579044
0.579064
0.579084
0.579104
0.579125
0.579125
0.579145
0.579165
0.579185
0.579205
0.579205
0.579225
0.579245
0.579265
0.579285
0.579285
0.579305
0.579325
0.579344
0.579364
0.579364
0.579383
0.579402
0.579422
0.579441
0.579441
0.57946
0.579479
0.579499
0.579518
0.579518
0.579537
0.579556
0.579575
0.579594
0.579594
0.579613
0.579632
0.579651
0.579669
0.579669
0.579688
0.579706
0.579725
0.579743
0.579743
0.579761
0.57978
0.579798
0.579816
0.579816
0.579835
0.579853
0.579871
0.579889
0.579889
0.579907
0.579925
0.579943
0.579961
0.579961
0.579979
0.579997
0.580014
0.580032
0.580032
0.580049
0.580067
0.580084
0.580102
0.580102
0.580119
0.580136
0.580154
0.580171
0.580171
0.580188
0.580206
0.580223
0.58024
0.58024
0.580257
0.580274
0.580291
0.580307
0.580307
0.580324
0.580341
0.580357
0.580374
0.580374
0.580391
0.580407
0.580424
0.58044
0.58044
0.580457
0.580473
0.58049
0.580506
0.580506
0.580522
0.580538
0.580554
0.58057
0.58057
0.580586
0.580602
0.580618
0.580634
0.580634
0.58065
0.580666
0.580682
0.580697
0.580697
0.580713
0.580729
0.580744
0.58076
0.58076
0.580776
0.580791
0.580806
0.580822
0.580822
0.580837
0.580852
0.580867
0.580883
0.580883
0.580898
0.580913
0.580928
0.580943
0.580943
0.580958
0.580973
0.580988
0.581003
0.581003
0.581018
0.581032
0.581047
0.581062
0.581062
0.581076
0.581091
0.581105
0.58112
0.58112
0.581134
0.581149
0.581163
0.581177
0.581177
0.581192
0.581206
0.58122
0.581234
0.581234
0.581249
0.581263
0.581277
0.581291
0.581291
0.581305
0.581319
0.581333
0.581346
0.581346
0.58136
0.581374
0.581388
0.581401
0.581401
0.581415
0.581429
0.581442
0.581456
0.581456
0.581469
0.581483
0.581496
0.58151
0.58151
0.581523
0.581536
0.58155
0.581563
0.581563
0.581576
0.581589
0.581602
0.581615
0.581615
0.581628
0.581641
0.581654
0.581667
0.581667
0.58168
0.581693
0.581706
0.581719
0.581719
0.581731
0.581744
0.581757
0.581769
0.581769
0.581782
0.581794
0.581807
0.581819
0.581819
0.581832
0.581844
0.581857
0.581869
0.581869
0.581882
0.581894
0.581906
0.581918
0.581918
0.581931
0.581943
0.581955
0.581967
0.581967
0.581979
0.581991
0.582003
0.582015
0.582015
0.582027
0.582038
0.58205
0.582062
0.582062
0.582074
0.582086
0.582097
0.582109
0.582109
0.582121
0.582132
0.582144
0.582155
0.582155
0.582167
0.582178
0.58219
0.582201
0.582201
0.582213
0.582224
0.582235
0.582247
0.582247
0.582258
0.582269
0.58228
0.582291
0.582291
0.582303
0.582314
0.582325
0.582336
0.582336
0.582347
0.582358
0.582369
0.582379
0.582379
0.58239
0.582401
0.582412
0.582423
0.582423
0.582434
0.582444
0.582455
0.582466
0.582466
0.582476
0.582487
0.582498
0.582508
0.582508
0.582519
0.582529
0.582539
0.58255
0.58255
0.58256
0.582571
0.582581
0.582591
0.582591
0.582602
0.582612
0.582622
0.582632
0.582632
0.582643
0.582653
0.582663
0.582673
0.582673
0.582683
0.582693
0.582703
0.582713
0.582713
0.582723
0.582733
0.582743
0.582753
0.582753
0.582762
0.582772
0.582782
0.582792
0.582792
0.582802
0.582811
0.582821
0.582831
0.582831
0.58284
0.58285
0.582859
0.582869
0.582869
0.582878
0.582888
0.582897
0.582907
0.582907
0.582916
0.582926
0.582935
0.582944
0.582944
0.582954
0.582963
0.582972
0.582981
0.582981
0.582991
0.583
0.583009
0.583018
0.583018
0.583027
0.583036
0.583045
0.583054
0.583054
0.583064
0.583073
0.583081
0.58309
0.58309
0.583099
0.583108
0.583117
0.583126
0.583126
0.583135
0.583144
0.583152
0.583161
0.583161
0.58317
0.583179
0.583187
0.583196
0.583196
0.583205
0.583213
0.583222
0.58323
0.58323
0.583239
0.583247
0.583256
0.583264
0.583264
0.583273
0.583281
0.58329
0.583298
0.583298
0.583306
0.583315
0.583323
0.583331
0.583331
0.58334
0.583348
0.583356
0.583364
0.583364
0.583373
0.583381
0.583389
0.583397
0.583397
0.583405
0.583413
0.583421
0.583429
0.583429
0.583437
0.583445
0.583453
0.583461
0.583461
0.583469
0.583477
0.583485
0.583493
0.583493
0.583501
0.583509
0.583516
0.583524
0.583524
0.583532
0.58354
0.583548
0.583555
0.583555
0.583563
0.583571
0.583578
0.583586
0.583586
0.583594
0.583601
0.583609
0.583616
0.583616
0.583624
0.583631
0.583639
0.583646
0.583646
0.583654
0.583661
0.583669
0.583676
0.583676
0.583684
0.583691
0.583698
0.583706
0.583706
0.583713
0.58372
0.583728
0.583735
0.583735
0.583742
0.583749
0.583756
0.583764
0.583764
0.583771
0.583778
0.583785
0.583792
0.583792
0.583799
0.583806
0.583814
0.583821
0.583821
0.583828
0.583835
0.583842
0.583849
0.583849
0.583856
0.583862
0.583869
0.583876
0.583876
0.583883
0.58389
0.583897
0.583904
0.583904
0.583911
0.583917
0.583924
0.583931
0.583931
0.583938
0.583945
0.583951
0.583958
0.583958
0.583965
0.583971
0.583978
0.583985
0.583985
0.583991
0.583998
0.584005
0.584011
0.584011
0.584018
0.584024
0.584031
0.584037
0.584037
0.584044
0.58405
0.584057
0.584063
0.584063
0.58407
0.584076
0.584083
0.584089
0.584089
0.584095
0.584102
0.584108
0.584115
0.584115
0.584121
0.584127
0.584134
0.58414
0.58414
0.584146
0.584152
0.584159
0.584165
0.584165
0.584171
0.584177
0.584183
0.58419
0.58419
0.584196
0.584202
0.584208
0.584214
0.584214
0.58422
0.584226
0.584232
0.584238
0.584238
0.584245
0.584251
0.584257
0.584263
0.584263
0.584269
0.584275
0.584281
0.584287
0.584287
0.584292
0.584298
0.584304
0.58431
0.58431
0.584316
0.584322
0.584328
0.584334
0.584334
0.58434
0.584345
0.584351
0.584357
0.584357
0.584363
0.584369
0.584374
0.58438
0.58438
0.584386