<?xml version="1.0"?>
<VTKFile type="UnstructuredGrid" version="0.1" byte_order="LittleEndian">
<UnstructuredGrid>
<Piece NumberOfPoints="5000" NumberOfCells="4000">
<PointData Scalars="Reaction 0">
<DataArray type="Float32" Name="Reaction 0" format="ascii">
0.805699
0.805699
0.805699
0.805699
0.805699
0.805699
0.805699
0.805699
0.805699
0.805699
0.805699
0.805699
0.805699
0.805699
0.805699
0.805699
0.805699
0.805699
0.805699
0.805699
0.805699
0.8057
0.8057
0.8057
0.8057
0.8057
0.8057
0.8057
0.8057
0.8057
0.8057
0.8057
0.805701
0.805701
0.805701
0.805701
0.805701
0.805701
0.805701
0.805701
0.805701
0.805702
0.805702
0.805702
0.805702
0.805702
0.805702
0.805703
0.805703
0.805703
0.805703
0.805703
0.805703
0.805704
0.805704
0.805704
0.805704
0.805704
0.805705
0.805705
0.805705
0.805705
0.805705
0.805706
0.805706
0.805706
0.805706
0.805706
0.805707
0.805707
0.805707
0.805707
0.805708
0.805708
0.805708
0.805708
0.805709
0.805709
0.805709
0.80571
0.80571
0.80571
0.80571
0.805711
0.805711
0.805711
0.805711
0.805712
0.805712
0.805712
0.805712
0.805713
0.805713
0.805714
0.805714
0.805714
0.805714
0.805715
0.805715
0.805716
0.805716
0.805716
0.805716
0.805717
0.805717
0.805717
0.805718
0.805718
0.805719
0.805719
0.805719
0.80572
0.80572
0.805721
0.805721
0.805721
0.805721
0.805722
0.805722
0.805723
0.805723
0.805723
0.805724
0.805724
0.805725
0.805725
0.805726
0.805726
0.805727
0.805727
0.805727
0.805728
0.805728
0.805729
0.805729
0.805729
0.80573
0.805731
0.805731
0.805732
0.805732
0.805732
0.805733
0.805733
0.805734
0.805734
0.805735
0.805735
0.805736
0.805737
0.805737
0.805737
0.805738
0.805738
0.805739
0.805739
0.80574
0.80574
0.805741
0.805742
0.805742
0.805742
0.805743
0.805744
0.805744
0.805744
0.805745
0.805746
0.805747
0.805747
0.805747
0.805748
0.805749
0.805749
0.80575
0.80575
0.805751
0.805752
0.805752
0.805753
0.805753
0.805754
0.805755
0.805755
0.805756
0.805756
0.805757
0.805758
0.805759
0.805759
0.805759
0.80576
0.805761
0.805762
0.805763
0.805763
0.805763
0.805764
0.805765
0.805766
0.805766
0.805767
0.805768
0.805768
0.805769
0.805769
0.80577
0.805771
0.805772
0.805773
0.805773
0.805774
0.805775
0.805775
0.805776
0.805776
0.805777
0.805778
0.805779
0.80578
0.80578
0.805781
0.805782
0.805783
0.805784
0.805784
0.805785
0.805786
0.805787
0.805788
0.805788
0.805789
0.80579
0.805791
0.805792
0.805792
0.805793
0.805793
0.805794
0.805796
0.805796
0.805797
0.805798
0.805799
0.8058
0.8058
0.805801
0.805802
0.805803
0.805804
0.805804
0.805805
0.805806
0.805807
0.805808
0.805808
0.805809
0.80581
0.805811
0.805812
0.805812
0.805813
0.805814
0.805816
0.805817
0.805817
0.805818
0.805819
0.80582
0.805821
0.805821
0.805822
0.805823
0.805825
0.805826
0.805826
0.805827
0.805828
0.805829
0.80583
0.80583
0.805832
0.805833
0.805834
0.805835
0.805835
0.805836
0.805838
0.805839
0.80584
0.80584
0.805841
0.805842
0.805844
0.805845
0.805845
0.805846
0.805847
0.805849
0.80585
0.80585
0.805851
0.805852
0.805854
0.805855
0.805855
0.805856
0.805858
0.805859
0.80586
0.80586
0.805861
0.805863
0.805864
0.805865
0.805865
0.805867
0.805868
0.805869
0.805871
0.805871
0.805872
0.805873
0.805875
0.805876
0.805876
0.805878
0.805879
0.80588
0.805882
0.805882
0.805883
0.805884
0.805886
0.805887
0.805887
0.805889
0.80589
0.805891
0.805893
0.805893
0.805894
0.805896
0.805897
0.805899
0.805899
0.8059
0.805902
0.805903
0.805904
0.805904
0.805906
0.805907
0.805909
0.80591
0.80591
0.805912
0.805913
0.805915
0.805916
0.805916
0.805918
0.805919
0.805921
0.805922
0.805922
0.805924
0.805926
0.805927
0.805929
0.805929
0.80593
0.805932
0.805933
0.805935
0.805935
0.805936
0.805938
0.80594
0.805941
0.805941
0.805943
0.805944
0.805946
0.805948
0.805948
0.805949
0.805951
0.805953
0.805954
0.805954
0.805956
0.805957
0.805959
0.805961
0.805961
0.805962
0.805964
0.805966
0.805967
0.805967
0.805969
0.805971
0.805973
0.805974
0.805974
0.805976
0.805978
0.805979
0.805981
0.805981
0.805983
0.805985
0.805986
0.805988
0.805988
0.80599
0.805991
0.805993
0.805995
0.805995
0.805997
0.805999
0.806
0.806002
0.806002
0.806004
0.806006
0.806007
0.806009
0.806009
0.806011
0.806013
0.806015
0.806017
0.806017
0.806018
0.80602
0.806022
0.806024
0.806024
0.806026
0.806028
0.806029
0.806031
0.806031
0.806033
0.806035
0.806037
0.806039
0.806039
0.806041
0.806043
0.806045
0.806046
0.806046
0.806048
0.80605
0.806052
0.806054
0.806054
0.806056
0.806058
0.80606
0.806062
0.806062
0.806064
0.806066
0.806068
0.80607
0.80607
0.806072
0.806074
0.806076
0.806078
0.806078
0.80608
0.806082
0.806084
0.806086
0.806086
0.806088
0.80609
0.806092
0.806094
0.806094
0.806096
0.806098
0.8061
0.806102
0.806102
0.806104
0.806106
0.806108
0.80611
0.80611
0.806112
0.806114
0.806116
0.806119
0.806119
0.806121
0.806123
0.806125
0.806127
0.806127
0.806129
0.806131
0.806133
0.806136
0.806136
0.806138
0.80614
0.806142
0.806144
0.806144
0.806146
0.806149
0.806151
0.806153
0.806153
0.806155
0.806157
0.806159
0.806162
0.806162
0.806164
0.806166
0.806168
0.80617
0.80617
0.806173
0.806175
0.806177
0.806179
0.806179
0.806182
0.806184
0.806186
0.806188
0.806188
0.806191
0.806193
0.806195
0.806198
0.806198
0.8062
0.806202
0.806204
0.806207
0.806207
0.806209
0.806211
0.806214
0.806216
0.806216
0.806218
0.806221
0.806223
0.806225
0.806225
0.806228
0.80623
0.806232
0.806235
0.806235
0.806237
0.80624
0.806242
0.806244
0.806244
0.806247
0.806249
0.806252
0.806254
0.806254
0.806256
0.806259
0.806261
0.806264
0.806264
0.806266
0.806269
0.806271
0.806273
0.806273
0.806276
0.806278
0.806281
0.806283
0.806283
0.806286
0.806288
0.806291
0.806293
0.806293
0.806296
0.806298
0.806301
0.806303
0.806303
0.806306
0.806308
0.806311
0.806313
0.806313
0.806316
0.806319
0.806321
0.806324
0.806324
0.806326
0.806329
0.806331
0.806334
0.806334
0.806337
0.806339
0.806342
0.806344
0.806344
0.806347
0.80635
0.806352
0.806355
0.806355
0.806357
0.80636
0.806363
0.806365
0.806365
0.806368
0.806371
0.806373
0.806376
0.806376
0.806379
0.806381
0.806384
0.806387
0.806387
0.806389
0.806392
0.806395
0.806397
0.806397
0.8064
0.806403
0.806406
0.806408
0.806408
0.806411
0.806414
0.806416
0.806419
0.806419
0.806422
0.806425
0.806428
0.80643
0.80643
0.806433
0.806436
0.806439
0.806441
0.806441
0.806444
0.806447
0.80645
0.806453
0.806453
0.806455
0.806458
0.806461
0.806464
0.806464
0.806467
0.80647
0.806472
0.806475
0.806475
0.806478
0.806481
0.806484
0.806487
0.806487
0.80649
0.806493
0.806495
0.806498
0.806498
0.806501
0.806504
0.806507
0.80651
0.80651
0.806513
0.806516
0.806519
0.806522
0.806522
0.806525
0.806528
0.80653
0.806533
0.806533
0.806536
0.806539
0.806542
0.806545
0.806545
0.806548
0.806551
0.806554
0.806557
0.806557
0.80656
0.806563
0.806566
0.806569
0.806569
0.806572
0.806575
0.806578
0.806581
0.806581
0.806585
0.806588
0.806591
0.806594
0.806594
0.806597
0.8066
0.806603
0.806606
0.806606
0.806609
0.806612
0.806615
0.806618
0.806618
0.806621
0.806625
0.806628
0.806631
0.806631
0.806634
0.806637
0.80664
0.806643
0.806643
0.806647
0.80665
0.806653
0.806656
0.806656
0.806659
0.806662
0.806666
0.806669
0.806669
0.806672
0.806675
0.806678
0.806682
0.806682
0.806685
0.806688
0.806691
0.806694
0.806694
0.806698
0.806701
0.806704
0.806707
0.806707
0.806711
0.806714
0.806717
0.80672
0.80672
0.806724
0.806727
0.80673
0.806734
0.806734
0.806737
0.80674
0.806744
0.806747
0.806747
0.80675
0.806753
0.806757
0.80676
0.80676
0.806763
0.806767
0.80677
0.806774
0.806774
0.806777
0.80678
0.806784
0.806787
0.806787
0.80679
0.806794
0.806797
0.806801
0.806801
0.806804
0.806807
0.806811
0.806814
0.806814
0.806818
0.806821
0.806824
0.806828
0.806828
0.806831
0.806835
0.806838
0.806842
0.806842
0.806845
0.806849
0.806852
0.806856
0.806856
0.806859
0.806863
0.806866
0.80687
0.80687
0.806873
0.806877
0.80688
0.806884
0.806884
0.806887
0.806891
0.806894
0.806898
0.806898
0.806901
0.806905
0.806909
0.806912
0.806912
0.806916
0.806919
0.806923
0.806926
0.806926
0.80693
0.806934
0.806937
0.806941
0.806941
0.806944
0.806948
0.806952
0.806955
0.806955
0.806959
0.806963
0.806966
0.80697
0.80697
0.806973
0.806977
0.806981
0.806984
0.806984
0.806988
0.806992
0.806996
0.806999
0.806999
0.807003
0.807007
0.80701
0.807014
0.807014
0.807018
0.807021
0.807025
0.807029
0.807029
0.807033
0.807036
0.80704
0.807044
0.807044
0.807048
0.807051
0.807055
0.807059
0.807059
0.807063
0.807067
0.80707
0.807074
0.807074
0.807078
0.807082
0.807086
0.807089
0.807089
0.807093
0.807097
0.807101
0.807105
0.807105
0.807109
0.807112
0.807116
0.80712
0.80712
0.807124
0.807128
0.807132
0.807136
0.807136
0.80714
0.807143
0.807147
0.807151
0.807151
0.807155
0.807159
0.807163
0.807167
0.807167
0.807171
0.807175
0.807179
0.807183
0.807183
0.807187
0.80719
0.807194
0.807198
0.807198
0.807202
0.807206
0.80721
0.807214
0.807214
0.807218
0.807222
0.807226
0.80723
0.80723
0.807234
0.807238
0.807242
0.807246
0.807246
0.80725
0.807255
0.807259
0.807263
0.807263
0.807267
0.807271
0.807275
0.807279
0.807279
0.807283
0.807287
0.807291
0.807295
0.807295
0.807299
0.807303
0.807307
0.807312
0.807312
0.807316
0.80732
0.807324
0.807328
0.807328
0.807332
0.807336
0.807341
0.807345
0.807345
0.807349
0.807353
0.807357
0.807361
0.807361
0.807365
0.80737
0.807374
0.807378
0.807378
0.807382
0.807386
0.807391
0.807395
0.807395
0.807399
0.807403
0.807408
0.807412
0.807412
0.807416
0.80742
0.807425
0.807429
0.807429
0.807433
0.807437
0.807442
0.807446
0.807446
0.80745
0.807455
0.807459
0.807463
0.807463
0.807467
0.807472
0.807476
0.80748
0.80748
0.807485
0.807489
0.807493
0.807498
0.807498
0.807502
0.807506
0.807511
0.807515
0.807515
0.807519
0.807524
0.807528
0.807533
0.807533
0.807537
0.807541
0.807546
0.80755
0.80755
0.807555
0.807559
0.807563
0.807568
0.807568
0.807572
0.807577
0.807581
0.807586
0.807586
0.80759
0.807595
0.807599
0.807603
0.807603
0.807608
0.807612
0.807617
0.807621
0.807621
0.807626
0.80763
0.807635
0.807639
0.807639
0.807644
0.807648
0.807653
0.807658
0.807658
0.807662
0.807667
0.807671
0.807676
0.807676
0.80768
0.807685
0.807689
0.807694
0.807694
0.807699
0.807703
0.807708
0.807712
0.807712
0.807717
0.807722
0.807726
0.807731
0.807731
0.807735
0.80774
0.807745
0.807749
0.807749
0.807754
0.807759
0.807763
0.807768
0.807768
0.807773
0.807777
0.807782
0.807787
0.807787
0.807791
0.807796
0.807801
0.807805
0.807805
0.80781
0.807815
0.807819
0.807824
0.807824
0.807829
0.807834
0.807838
0.807843
0.807843
0.807848
0.807853
0.807857
0.807862
0.807862
0.807867
0.807872
0.807876
0.807881
0.807881
0.807886
0.807891
0.807896
0.8079
0.8079
0.807905
0.80791
0.807915
0.80792
0.80792
0.807924
0.807929
0.807934
0.807939
0.807939
0.807944
0.807949
0.807954
0.807958
0.807958
0.807963
0.807968
0.807973
0.807978
0.807978
0.807983
0.807988
0.807993
0.807998
0.807998
0.808003
0.808007
0.808012
0.808017
0.808017
0.808022
0.808027
0.808032
0.808037
0.808037
0.808042
0.808047
0.808052
0.808057
0.808057
0.808062
0.808067
0.808072
0.808077
0.808077
0.808082
0.808087
0.808092
0.808097
0.808097
0.808102
0.808107
0.808112
0.808117
0.808117
0.808122
0.808127
0.808132
0.808137
0.808137
0.808142
0.808147
0.808152
0.808157
0.808157
0.808163
0.808168
0.808173
0.808178
0.808178
0.808183
0.808188
0.808193
0.808198
0.808198
0.808203
0.808209
0.808214
0.808219
0.808219
0.808224
0.808229
0.808234
0.808239
0.808239
0.808245
0.80825
0.808255
0.80826
0.80826
0.808265
0.80827
0.808276
0.808281
0.808281
0.808286
0.808291
0.808297
0.808302
0.808302
0.808307
0.808312
0.808317
0.808323
0.808323
0.808328
0.808333
0.808338
0.808344
0.808344
0.808349
0.808354
0.80836
0.808365
0.808365
0.80837
0.808375
0.808381
0.808386
0.808386
0.808391
0.808397
0.808402
0.808407
0.808407
0.808413
0.808418
0.808423
0.808429
0.808429
0.808434
0.808439
0.808445
0.80845
0.80845
0.808456
0.808461
0.808466
0.808472
0.808472
0.808477
0.808483
0.808488
0.808493
0.808493
0.808499
0.808504
0.80851
0.808515
0.808515
0.80852
0.808526
0.808531
0.808537
0.808537
0.808542
0.808548
0.808553
0.808559
0.808559
0.808564
0.80857
0.808575
0.808581
0.808581
0.808586
0.808592
0.808597
0.808603
0.808603
0.808608
0.808614
0.808619
0.808625
0.808625
0.80863
0.808636
0.808641
0.808647
0.808647
0.808653
0.808658
0.808664
0.808669
0.808669
0.808675
0.808681
0.808686
0.808692
0.808692
0.808697
0.808703
0.808709
0.808714
0.808714
0.80872
0.808725
0.808731
0.808737
0.808737
0.808742
0.808748
0.808754
0.808759
0.808759
0.808765
0.808771
0.808776
0.808782
0.808782
0.808788
0.808793
0.808799
0.808805
0.808805
0.808811
0.808816
0.808822
0.808828
0.808828
0.808833
0.808839
0.808845
0.808851
0.808851
0.808856
0.808862
0.808868
0.808874
0.808874
0.80888
0.808885
0.808891
0.808897
0.808897
0.808903
0.808908
0.808914
0.80892
0.80892
0.808926
0.808932
0.808938
0.808943
0.808943
0.808949
0.808955
0.808961
0.808967
0.808967
0.808973
0.808979
0.808984
0.80899
0.80899
0.808996
0.809002
0.809008
0.809014
0.809014
0.80902
0.809026
0.809032
0.809037
0.809037
0.809043
0.809049
0.809055
0.809061
0.809061
0.809067
0.809073
0.809079
0.809085
0.809085
0.809091
0.809097
0.809103
0.809109
0.809109
0.809115
0.809121
0.809127
0.809133
0.809133
0.809139
0.809145
0.809151
0.809157
0.809157
0.809163
0.809169
0.809175
0.809181
0.809181
0.809187
0.809193
0.809199
0.809205
0.809205
0.809211
0.809217
0.809224
0.80923
0.80923
0.809236
0.809242
0.809248
0.809254
0.809254
0.80926
0.809266
0.809272
0.809278
0.809278
0.809285
0.809291
0.809297
0.809303
0.809303
0.809309
0.809315
0.809322
0.809328
0.809328
0.809334
0.80934
0.809346
0.809352
0.809352
0.809359
0.809365
0.809371
0.809377
0.809377
0.809383
0.80939
0.809396
0.809402
0.809402
0.809408
0.809415
0.809421
0.809427
0.809427
0.809433
0.80944
0.809446
0.809452
0.809452
0.809458
0.809465
0.809471
0.809477
0.809477
0.809484
0.80949
0.809496
0.809503
0.809503
0.809509
0.809515
0.809522
0.809528
0.809528
0.809534
0.809541
0.809547
0.809553
0.809553
0.80956
0.809566
0.809572
0.809579
0.809579
0.809585
0.809592
0.809598
0.809604
0.809604
0.809611
0.809617
0.809624
0.80963
0.80963
0.809636
0.809643
0.809649
0.809656
0.809656
0.809662
0.809669
0.809675
0.809682
0.809682
0.809688
0.809694
0.809701
0.809707
0.809707
0.809714
0.80972
0.809727
0.809733
0.809733
0.80974
0.809746
0.809753
0.80976
0.80976
0.809766
0.809773
0.809779
0.809786
0.809786
0.809792
0.809799
0.809805
0.809812
0.809812
0.809818
0.809825
0.809832
0.809838
0.809838
0.809845
0.809851
0.809858
0.809865
0.809865
0.809871
0.809878
0.809885
0.809891
0.809891
0.809898
0.809904
0.809911
0.809918
0.809918
0.809924
0.809931
0.809938
0.809944
0.809944
0.809951
0.809958
0.809964
0.809971
0.809971
0.809978
0.809985
0.809991
0.809998
0.809998
0.810005
0.810011
0.810018
0.810025
0.810025
0.810032
0.810038
0.810045
0.810052
0.810052
0.810059
0.810065
0.810072
0.810079
0.810079
0.810086
0.810093
0.810099
0.810106
0.810106
0.810113
0.81012
0.810127
0.810133
0.810133
0.81014
0.810147
0.810154
0.810161
0.810161
0.810168
0.810174
0.810181
0.810188
0.810188
0.810195
0.810202
0.810209
0.810216
0.810216
0.810222
0.810229
0.810236
0.810243
0.810243
0.81025
0.810257
0.810264
0.810271
0.810271
0.810278
0.810285
0.810292
0.810299
0.810299
0.810306
0.810313
0.81032
0.810326
0.810326
0.810333
0.81034
0.810347
0.810354
0.810354
0.810361
0.810368
0.810375
0.810382
0.810382
0.810389
0.810396
0.810403
0.81041
0.81041
0.810417
0.810425
0.810432
0.810439
0.810439
0.810446
0.810453
0.81046
0.810467
0.810467
0.810474
0.810481
0.810488
0.810495
0.810495
0.810502
0.810509
0.810517
0.810524
0.810524
0.810531
0.810538
0.810545
0.810552
0.810552
0.810559
0.810566
0.810574
0.810581
0.810581
0.810588
0.810595
0.810602
0.810609
0.810609
0.810617
0.810624
0.810631
0.810638
0.810638
0.810645
0.810653
0.81066
0.810667
0.810667
0.810674
0.810682
0.810689
0.810696
0.810696
0.810703
0.810711
0.810718
0.810725
0.810725
0.810732
0.81074
0.810747
0.810754
0.810754
0.810761
0.810769
0.810776
0.810783
0.810783
0.810791
0.810798
0.810805
0.810813
0.810813
0.81082
0.810827
0.810835
0.810842
0.810842
0.810849
0.810857
0.810864
0.810871
0.810871
0.810879
0.810886
0.810893
0.810901
0.810901
0.810908
0.810916
0.810923
0.81093
0.81093
0.810938
0.810945
0.810953
0.81096
0.81096
0.810968
0.810975
0.810982
0.81099
0.81099
0.810997
0.811005
0.811012
0.81102
0.81102
0.811027
0.811035
0.811042
0.81105
0.81105
0.811057
0.811065
0.811072
0.81108
0.81108
0.811087
0.811095
0.811102
0.81111
0.81111
0.811117
0.811125
0.811132
0.81114
0.81114
0.811148
0.811155
0.811163
0.81117
0.81117
0.811178
0.811185
0.811193
0.811201
0.811201
0.811208
0.811216
0.811223
0.811231
0.811231
0.811239
0.811246
0.811254
0.811262
0.811262
0.811269
0.811277
0.811285
0.811292
0.811292
0.8113
0.811308
0.811315
0.811323
0.811323
0.811331
0.811338
0.811346
0.811354
0.811354
0.811361
0.811369
0.811377
0.811385
0.811385
0.811392
0.8114
0.811408
0.811416
0.811416
0.811423
0.811431
0.811439
0.811447
0.811447
0.811454
0.811462
0.81147
0.811478
0.811478
0.811485
0.811493
0.811501
0.811509
0.811509
0.811517
0.811525
0.811532
0.81154
0.81154
0.811548
0.811556
0.811564
0.811572
0.811572
0.811579
0.811587
0.811595
0.811603
0.811603
0.811611
0.811619
0.811627
0.811635
0.811635
0.811642
0.81165
0.811658
0.811666
0.811666
0.811674
0.811682
0.81169
0.811698
0.811698
0.811706
0.811714
0.811722
0.81173
0.81173
0.811738
0.811746
0.811754
0.811761
0.811761
0.811769
0.811777
0.811785
0.811793
0.811793
0.811801
0.811809
0.811817
0.811825
0.811825
0.811834
0.811842
0.81185
0.811858
0.811858
0.811866
0.811874
0.811882
0.81189
0.81189
0.811898
0.811906
0.811914
0.811922
0.811922
0.81193
0.811938
0.811946
0.811954
0.811954
0.811963
0.811971
0.811979
0.811987
0.811987
0.811995
0.812003
0.812011
0.812019
0.812019
0.812028
0.812036
0.812044
0.812052
0.812052
0.81206
0.812068
0.812077
0.812085
0.812085
0.812093
0.812101
0.812109
0.812118
0.812118
0.812126
0.812134
0.812142
0.812151
0.812151
0.812159
0.812167
0.812175
0.812183
0.812183
0.812192
0.8122
0.812208
0.812217
0.812217
0.812225
0.812233
0.812241
0.81225
0.81225
0.812258
0.812266
0.812275
0.812283
0.812283
0.812291
0.8123
0.812308
0.812316
0.812316
0.812325
0.812333
0.812341
0.81235
0.81235
0.812358
0.812366
0.812375
0.812383
0.812383
0.812391
0.8124
0.812408
0.812417
0.812417
0.812425
0.812433
0.812442
0.81245
0.81245
0.812459
0.812467
0.812476
0.812484
0.812484
0.812492
0.812501
0.812509
0.812518
0.812518
0.812526
0.812535
0.812543
0.812552
0.812552
0.81256
0.812569
0.812577
0.812586
0.812586
0.812594
0.812603
0.812611
0.81262
0.81262
0.812628
0.812637
0.812645
0.812654
0.812654
0.812662
0.812671
0.812679
0.812688
0.812688
0.812697
0.812705
0.812714
0.812722
0.812722
0.812731
0.81274
0.812748
0.812757
0.812757
0.812765
0.812774
0.812783
0.812791
0.812791
0.8128
0.812808
0.812817
0.812826
0.812826
0.812834
0.812843
0.812852
0.81286
0.81286
0.812869
0.812878
0.812886
0.812895
0.812895
0.812904
0.812913
0.812921
0.81293
0.81293
0.812939
0.812947
0.812956
0.812965
0.812965
0.812974
0.812982
0.812991
0.813
0.813
0.813009
0.813017
0.813026
0.813035
0.813035
0.813044
0.813052
0.813061
0.81307
0.81307
0.813079
0.813088
0.813096
0.813105
0.813105
0.813114
0.813123
0.813132
0.813141
0.813141
0.813149
0.813158
0.813167
0.813176
0.813176
0.813185
0.813194
0.813203
0.813212
0.813212
0.81322
0.813229
0.813238
0.813247
0.813247
0.813256
0.813265
0.813274
0.813283
0.813283
0.813292
0.813301
0.81331
0.813318
0.813318
0.813327
0.813336
0.813345
0.813354
0.813354
0.813363
0.813372
0.813381
0.81339
0.81339
0.813399
0.813408
0.813417
0.813426
0.813426
0.813435
0.813444
0.813453
0.813462
0.813462
0.813471
0.81348
0.813489
0.813498
0.813498
0.813507
0.813517
0.813526
0.813535
0.813535
0.813544
0.813553
0.813562
0.813571
0.813571
0.81358
0.813589
0.813598
0.813607
0.813607
0.813617
0.813626
0.813635
0.813644
0.813644
0.813653
0.813662
0.813671
0.81368
0.81368
0.81369
0.813699
0.813708
0.813717
0.813717
0.813726
0.813736
0.813745
0.813754
0.813754
0.813763
0.813772
0.813782
0.813791
0.813791
0.8138
0.813809
0.813818
0.813828
0.813828
0.813837
0.813846
0.813855
0.813865
0.813865
0.813874
0.813883
0.813892
0.813902
0.813902
0.813911
0.81392
0.81393
0.813939
0.813939
0.813948
0.813958
0.813967
0.813976
0.813976
0.813985
0.813995
0.814004
0.814013
0.814013
0.814023
0.814032
0.814042
0.814051
0.814051
0.81406
0.81407
0.814079
0.814088
0.814088
0.814098
0.814107
0.814117
0.814126
0.814126
0.814135
0.814145
0.814154
0.814164
0.814164
0.814173
0.814183
0.814192
0.814201
0.814201
0.814211
0.81422
0.81423
0.814239
0.814239
0.814249
0.814258
0.814268
0.814277
0.814277
0.814287
0.814296
0.814306
0.814315
0.814315
0.814325
0.814334
0.814344
0.814353
0.814353
0.814363
0.814372
0.814382
0.814391
0.814391
0.814401
0.814411
0.81442
0.81443
0.81443
0.814439
0.814449
0.814459
0.814468
0.814468
0.814478
0.814487
0.814497
0.814507
0.814507
0.814516
0.814526
0.814535
0.814545
0.814545
0.814555
0.814564
0.814574
0.814584
0.814584
0.814593
0.814603
0.814613
0.814622
0.814622
0.814632
0.814642
0.814651
0.814661
0.814661
0.814671
0.814681
0.81469
0.8147
0.8147
0.81471
0.814719
0.814729
0.814739
0.814739
0.814749
0.814758
0.814768
0.814778
0.814778
0.814788
0.814797
0.814807
0.814817
0.814817
0.814827
0.814837
0.814846
0.814856
0.814856
0.814866
0.814876
0.814886
0.814895
0.814895
0.814905
0.814915
0.814925
0.814935
0.814935
0.814945
0.814955
0.814964
0.814974
0.814974
0.814984
0.814994
0.815004
0.815014
0.815014
0.815024
0.815034
0.815044
0.815053
0.815053
0.815063
0.815073
0.815083
0.815093
0.815093
0.815103
0.815113
0.815123
0.815133
0.815133
0.815143
0.815153
0.815163
0.815173
0.815173
0.815183
0.815193
0.815203
0.815213
0.815213
0.815223
0.815233
0.815243
0.815253
0.815253
0.815263
0.815273
0.815283
0.815293
0.815293
0.815303
0.815313
0.815323
0.815333
0.815333
0.815343
0.815353
0.815363
0.815373
0.815373
0.815383
0.815393
0.815404
0.815414
0.815414
0.815424
0.815434
0.815444
0.815454
0.815454
0.815464
0.815474
0.815485
0.815495
0.815495
0.815505
0.815515
0.815525
0.815535
0.815535
0.815545
0.815556
0.815566
0.815576
0.815576
0.815586
0.815596
0.815607
0.815617
0.815617
0.815627
0.815637
0.815647
0.815658
0.815658
0.815668
0.815678
0.815688
0.815699
0.815699
0.815709
0.815719
0.815729
0.81574
0.81574
0.81575
0.81576
0.81577
0.815781
0.815781
0.815791
0.815801
0.815812
0.815822
0.815822
0.815832
0.815843
0.815853
0.815863
0.815863
0.815874
0.815884
0.815894
0.815905
0.815905
0.815915
0.815925
0.815936
0.815946
0.815946
0.815956
0.815967
0.815977
0.815988
0.815988
0.815998
0.816008
0.816019
0.816029
0.816029
0.81604
0.81605
0.816061
0.816071
0.816071
0.816081
0.816092
0.816102
0.816113
0.816113
0.816123
0.816134
0.816144
0.816155
0.816155
0.816165
0.816176
0.816186
0.816197
0.816197
0.816207
0.816218
0.816228
0.816239
0.816239
0.816249
0.81626
0.81627
0.816281
0.816281
0.816291
0.816302
0.816312
0.816323
0.816323
0.816334
0.816344
0.816355
0.816365
0.816365
0.816376
0.816387
0.816397
0.816408
0.816408
0.816418
0.816429
0.81644
0.81645
0.81645
0.816461
0.816471
0.816482
0.816493
0.816493
0.816503
0.816514
0.816525
0.816535
0.816535
0.816546
0.816557
0.816567
0.816578
0.816578
0.816589
0.8166
0.81661
0.816621
0.816621
0.816632
0.816642
0.816653
0.816664
0.816664
0.816675
0.816685
0.816696
0.816707
0.816707
0.816718
0.816728
0.816739
0.81675
0.81675
0.816761
0.816771
0.816782
0.816793
0.816793
0.816804
0.816815
0.816825
0.816836
0.816836
0.816847
0.816858
0.816869
0.81688
0.81688
0.81689
0.816901
0.816912
0.816923
0.816923
0.816934
0.816945
0.816956
0.816966
0.816966
0.816977
0.816988
0.816999
0.81701
0.81701
0.817021
0.817032
0.817043
0.817054
0.817054
0.817065
0.817076
0.817086
0.817097
0.817097
0.817108
0.817119
0.81713
0.817141
0.817141
0.817152
0.817163
0.817174
0.817185
0.817185
0.817196
0.817207
0.817218
0.817229
0.817229
0.81724
0.817251
0.817262
0.817273
0.817273
0.817284
0.817295
0.817306
0.817317
0.817317
0.817328
0.817339
0.817351
0.817362
0.817362
0.817373
0.817384
0.817395
0.817406
0.817406
0.817417
0.817428
0.817439
0.81745
0.81745
0.817461
0.817473
0.817484
0.817495
0.817495
0.817506
0.817517
0.817528
0.817539
0.817539
0.817551
0.817562
0.817573
0.817584
0.817584
0.817595
0.817606
0.817618
0.817629
0.817629
0.81764
0.817651
0.817662
0.817674
0.817674
0.817685
0.817696
0.817707
0.817719
0.817719
0.81773
0.817741
0.817752
0.817764
0.817764
0.817775
0.817786
0.817797
0.817809
0.817809
0.81782
0.817831
0.817843
0.817854
0.817854
0.817865
0.817876
0.817888
0.817899
0.817899
0.81791
0.817922
0.817933
0.817944
0.817944
0.817956
0.817967
0.817978
0.81799
0.81799
0.818001
0.818013
0.818024
0.818035
0.818035
0.818047
0.818058
0.81807
0.818081
0.818081
0.818092
0.818104
0.818115
0.818127
0.818127
0.818138
0.818149
0.818161
0.818172
0.818172
0.818184
0.818195
0.818207
0.818218
0.818218
0.81823
0.818241
0.818253
0.818264
0.818264
0.818276
0.818287
0.818299
0.81831
0.81831
0.818322
0.818333
0.818345
0.818356
0.818356
0.818368
0.818379
0.818391
0.818402
0.818402
0.818414
0.818426
0.818437
0.818449
0.818449
0.81846
0.818472
0.818483
0.818495
0.818495
0.818507
0.818518
0.81853
0.818541
0.818541
0.818553
0.818565
0.818576
0.818588
0.818588
0.8186
0.818611
0.818623
0.818635
0.818635
0.818646
0.818658
0.81867
0.818681
0.818681
0.818693
0.818705
0.818716
0.818728
0.818728
0.81874
0.818751
0.818763
0.818775
0.818775
0.818787
0.818798
0.81881
0.818822
0.818822
0.818834
0.818845
0.818857
0.818869
0.818869
0.818881
0.818892
0.818904
0.818916
0.818916
0.818928
0.81894
0.818951
0.818963
0.818963
0.818975
0.818987
0.818999
0.81901
0.81901
0.819022
0.819034
0.819046
0.819058
0.819058
0.81907
0.819082
0.819093
0.819105
0.819105
0.819117
0.819129
0.819141
0.819153
0.819153
0.819165
0.819177
0.819188
0.8192
0.8192
0.819212
0.819224
0.819236
0.819248
0.819248
0.81926
0.819272
0.819284
0.819296
0.819296
0.819308
0.81932
0.819332
0.819344
0.819344
0.819356
0.819368
0.81938
0.819392
0.819392
0.819404
0.819416
0.819428
0.81944
0.81944
0.819452
0.819464
0.819476
0.819488
0.819488
0.8195
0.819512
0.819524
0.819536
0.819536
0.819548
0.81956
0.819572
0.819584
0.819584
0.819596
0.819609
0.819621
0.819633
0.819633
0.819645
0.819657
0.819669
0.819681
0.819681
0.819693
0.819705
0.819718
0.81973
0.81973
0.819742
0.819754
0.819766
0.819778
0.819778
0.819791
0.819803
0.819815
0.819827
0.819827
0.819839
0.819851
0.819864
0.819876
0.819876
0.819888
0.8199
0.819913
0.819925
0.819925
0.819937
0.819949
0.819961
0.819974
0.819974
0.819986
0.819998
0.82001
0.820023
0.820023
0.820035
0.820047
0.82006
0.820072
0.820072
0.820084
0.820097
0.820109
0.820121
0.820121
0.820133
0.820146
0.820158
0.82017
0.82017
0.820183
0.820195
0.820207
0.82022
0.82022
0.820232
0.820245
0.820257
0.820269
0.820269
0.820282
0.820294
0.820306
0.820319
0.820319
0.820331
0.820344
0.820356
0.820368
0.820368
0.820381
0.820393
0.820406
0.820418
0.820418
0.820431
0.820443
0.820456
0.820468
0.820468
0.82048
0.820493
0.820505
0.820518
0.820518
0.82053
0.820543
0.820555
0.820568
0.820568
0.82058
0.820593
0.820605
0.820618
0.820618
0.82063
0.820643
0.820656
0.820668
0.820668
0.820681
0.820693
0.820706
0.820718
0.820718
0.820731
0.820743
0.820756
0.820769
0.820769
0.820781
0.820794
0.820806
0.820819
0.820819
0.820832
0.820844
0.820857
0.82087
0.82087
0.820882
0.820895
0.820907
0.82092
0.82092
0.820933
0.820945
0.820958
0.820971
0.820971
0.820983
0.820996
0.821009
0.821021
0.821021
0.821034
0.821047
0.82106
0.821072
0.821072
0.821085
0.821098
0.821111
0.821123
0.821123
0.821136
0.821149
0.821161
0.821174
0.821174
0.821187
0.8212
0.821213
0.821225
0.821225
0.821238
0.821251
0.821264
0.821276
0.821276
0.821289
0.821302
0.821315
0.821328
0.821328
0.821341
0.821353
0.821366
0.821379
0.821379
0.821392
0.821405
0.821418
0.82143
0.82143
0.821443
0.821456
0.821469
0.821482
0.821482
0.821495
0.821508
0.821521
0.821534
0.821534
0.821546
0.821559
0.821572
0.821585
0.821585
0.821598
0.821611
0.821624
0.821637
0.821637
0.82165
0.821663
0.821676
0.821689
0.821689
0.821702
0.821715
0.821728
0.821741
0.821741
0.821754
0.821767
0.82178
0.821793
0.821793
0.821806
0.821819
0.821832
0.821845
0.821845
0.821858
0.821871
0.821884
0.821897
0.821897
0.82191
0.821923
0.821936
0.821949
0.821949
0.821962
0.821975
0.821989
0.822002
0.822002
0.822015
0.822028
0.822041
0.822054
0.822054
0.822067
0.82208
0.822093
0.822107
0.822107
0.82212
0.822133
0.822146
0.822159
0.822159
0.822172
0.822185
0.822199
0.822212
0.822212
0.822225
0.822238
0.822251
0.822265
0.822265
0.822278
0.822291
0.822304
0.822317
0.822317
0.822331
0.822344
0.822357
0.82237
0.82237
0.822384
0.822397
0.82241
0.822423
0.822423
0.822437
0.82245
0.822463
0.822477
0.822477
0.82249
0.822503
0.822516
0.82253
0.82253
0.822543
0.822556
0.82257
0.822583
0.822583
0.822596
0.82261
0.822623
0.822636
0.822636
0.82265
0.822663
0.822676
0.82269
0.82269
0.822703
0.822717
0.82273
0.822743
0.822743
0.822757
0.82277
0.822784
0.822797
0.822797
0.82281
0.822824
0.822837
0.822851
0.822851
0.822864
0.822878
0.822891
0.822904
0.822904
0.822918
0.822931
0.822945
0.822958
0.822958
0.822972
0.822985
0.822999
0.823012
0.823012
0.823026
0.823039
0.823053
0.823066
0.823066
0.82308
0.823093
0.823107
0.82312
0.82312
0.823134
0.823148
0.823161
0.823175
0.823175
0.823188
0.823202
0.823215
0.823229
0.823229
0.823243
0.823256
0.82327
0.823283
0.823283
0.823297
0.823311
0.823324
0.823338
0.823338
0.823351
0.823365
0.823379
0.823392
0.823392
0.823406
0.82342
0.823433
0.823447
0.823447
0.823461
0.823474
0.823488
0.823502
0.823502
0.823515
0.823529
0.823543
0.823556
0.823556
0.82357
0.823584
0.823598
0.823611
0.823611
0.823625
0.823639
0.823653
0.823666
0.823666
0.82368
0.823694
0.823708
0.823721
0.823721
0.823735
0.823749
0.823763
0.823777
0.823777
0.82379
0.823804
0.823818
0.823832
0.823832
0.823846
0.823859
0.823873
0.823887
0.823887
0.823901
0.823915
0.823929
0.823942
0.823942
0.823956
0.82397
0.823984
0.823998
0.823998
0.824012
0.824026
0.82404
0.824053
0.824053
0.824067
0.824081
0.824095
0.824109
0.824109
0.824123
0.824137
0.824151
0.824165
0.824165
0.824179
0.824193
0.824207
0.824221
0.824221
0.824235
0.824249
0.824263
0.824277
0.824277
0.824291
0.824305
0.824319
0.824333
0.824333
0.824347
0.824361
0.824375
0.824389
0.824389
0.824403
0.824417
0.824431
0.824445
0.824445
0.824459
0.824473
0.824487
0.824501
0.824501
0.824515
0.824529