<?xml version="1.0"?>
<VTKFile type="UnstructuredGrid" version="0.1" byte_order="LittleEndian">
<UnstructuredGrid>
<Piece NumberOfPoints="5000" NumberOfCells="4000">
<PointData Scalars="Reaction 0">
<DataArray type="Float32" Name="Reaction 0" format="ascii">
0.587362
0.587362
0.587362
0.587362
0.587362
0.587362
0.587362
0.587362
0.587362
0.587362
0.587362
0.587362
0.587362
0.587363
0.587363
0.587363
0.587363
0.587363
0.587363
0.587364
0.587364
0.587364
0.587364
0.587364
0.587365
0.587365
0.587365
0.587365
0.587366
0.587366
0.587366
0.587367
0.587367
0.587367
0.587368
0.587368
0.587368
0.587369
0.587369
0.58737
0.58737
0.58737
0.587371
0.587371
0.587372
0.587372
0.587373
0.587373
0.587374
0.587374
0.587374
0.587375
0.587376
0.587376
0.587377
0.587377
0.587378
0.587379
0.587379
0.58738
0.58738
0.587381
0.587382
0.587382
0.587383
0.587383
0.587384
0.587385
0.587386
0.587387
0.587387
0.587388
0.587389
0.587389
0.58739
0.58739
0.587391
0.587392
0.587393
0.587394
0.587394
0.587395
0.587396
0.587398
0.587399
0.587399
0.5874
0.587401
0.587402
0.587403
0.587403
0.587404
0.587405
0.587407
0.587408
0.587408
0.587409
0.58741
0.587412
0.587413
0.587413
0.587414
0.587415
0.587417
0.587418
0.587418
0.587419
0.587421
0.587422
0.587424
0.587424
0.587425
0.587426
0.587428
0.587429
0.587429
0.587431
0.587432
0.587434
0.587435
0.587435
0.587437
0.587438
0.58744
0.587442
0.587442
0.587443
0.587445
0.587446
0.587448
0.587448
0.58745
0.587451
0.587453
0.587455
0.587455
0.587457
0.587458
0.58746
0.587462
0.587462
0.587464
0.587465
0.587467
0.587469
0.587469
0.587471
0.587473
0.587475
0.587477
0.587477
0.587479
0.587481
0.587483
0.587484
0.587484
0.587486
0.587488
0.587491
0.587493
0.587493
0.587495
0.587497
0.587499
0.587501
0.587501
0.587503
0.587505
0.587507
0.587509
0.587509
0.587512
0.587514
0.587516
0.587518
0.587518
0.58752
0.587523
0.587525
0.587527
0.587527
0.58753
0.587532
0.587534
0.587537
0.587537
0.587539
0.587541
0.587544
0.587546
0.587546
0.587549
0.587551
0.587553
0.587556
0.587556
0.587558
0.587561
0.587563
0.587565
0.587565
0.587568
0.58757
0.587572
0.587575
0.587575
0.587577
0.58758
0.587582
0.587585
0.587585
0.587587
0.58759
0.587592
0.587595
0.587595
0.587597
0.5876
0.587602
0.587605
0.587605
0.587608
0.58761
0.587613
0.587616
0.587616
0.587618
0.587621
0.587624
0.587626
0.587626
0.587629
0.587632
0.587634
0.587637
0.587637
0.58764
0.587643
0.587646
0.587648
0.587648
0.587651
0.587654
0.587657
0.58766
0.58766
0.587663
0.587666
0.587669
0.587672
0.587672
0.587675
0.587677
0.58768
0.587683
0.587683
0.587686
0.58769
0.587693
0.587696
0.587696
0.587699
0.587702
0.587705
0.587708
0.587708
0.587711
0.587714
0.587717
0.587721
0.587721
0.587724
0.587727
0.58773
0.587733
0.587733
0.587737
0.58774
0.587743
0.587747
0.587747
0.58775
0.587753
0.587757
0.58776
0.58776
0.587763
0.587767
0.58777
0.587773
0.587773
0.587777
0.58778
0.587784
0.587787
0.587787
0.587791
0.587794
0.587798
0.587801
0.587801
0.587805
0.587808
0.587812
0.587815
0.587815
0.587819
0.587823
0.587826
0.58783
0.58783
0.587834
0.587837
0.587841
0.587845
0.587845
0.587848
0.587852
0.587856
0.58786
0.58786
0.587863
0.587867
0.587871
0.587875
0.587875
0.587879
0.587882
0.587886
0.58789
0.58789
0.587894
0.587898
0.587902
0.587906
0.587906
0.58791
0.587914
0.587918
0.587922
0.587922
0.587926
0.58793
0.587934
0.587938
0.587938
0.587942
0.587946
0.58795
0.587954
0.587954
0.587958
0.587962
0.587967
0.587971
0.587971
0.587975
0.587979
0.587983
0.587987
0.587987
0.587992
0.587996
0.588
0.588005
0.588005
0.588009
0.588013
0.588017
0.588022
0.588022
0.588026
0.58803
0.588035
0.588039
0.588039
0.588043
0.588047
0.588051
0.588056
0.588056
0.58806
0.588064
0.588068
0.588072
0.588072
0.588076
0.588081
0.588085
0.588089
0.588089
0.588093
0.588098
0.588102
0.588106
0.588106
0.58811
0.588115
0.588119
0.588123
0.588123
0.588128
0.588132
0.588136
0.588141
0.588141
0.588145
0.58815
0.588154
0.588159
0.588159
0.588163
0.588167
0.588172
0.588176
0.588176
0.588181
0.588185
0.58819
0.588195
0.588195
0.588199
0.588204
0.588208
0.588213
0.588213
0.588217
0.588222
0.588227
0.588231
0.588231
0.588236
0.588241
0.588245
0.58825
0.58825
0.588255
0.58826
0.588264
0.588269
0.588269
0.588274
0.588279
0.588283
0.588288
0.588288
0.588293
0.588298
0.588303
0.588308
0.588308
0.588312
0.588317
0.588322
0.588327
0.588327
0.588332
0.588337
0.588342
0.588347
0.588347
0.588352
0.588357
0.588362
0.588367
0.588367
0.588372
0.588377
0.588382
0.588387
0.588387
0.588392
0.588397
0.588403
0.588408
0.588408
0.588413
0.588418
0.588423
0.588428
0.588428
0.588434
0.588439
0.588444
0.588449
0.588449
0.588454
0.58846
0.588465
0.58847
0.58847
0.588475
0.588481
0.588486
0.588491
0.588491
0.588496
0.588501
0.588506
0.588511
0.588511
0.588516
0.588521
0.588526
0.588531
0.588531
0.588536
0.588541
0.588546
0.588551
0.588551
0.588557
0.588562
0.588567
0.588572
0.588572
0.588577
0.588582
0.588587
0.588593
0.588593
0.588598
0.588603
0.588608
0.588613
0.588613
0.588619
0.588624
0.588629
0.588635
0.588635
0.58864
0.588645
0.58865
0.588656
0.588656
0.588661
0.588666
0.588672
0.588677
0.588677
0.588683
0.588688
0.588693
0.588699
0.588699
0.588704
0.58871
0.588715
0.588721
0.588721
0.588726
0.588732
0.588737
0.588743
0.588743
0.588748
0.588754
0.588759
0.588765
0.588765
0.58877
0.588776
0.588782
0.588787
0.588787
0.588793
0.588798
0.588804
0.58881
0.58881
0.588815
0.588821
0.588827
0.588833
0.588833
0.588838
0.588844
0.58885
0.588856
0.588856
0.588861
0.588867
0.588873
0.588879
0.588879
0.588884
0.58889
0.588896
0.588902
0.588902
0.588907
0.588913
0.588918
0.588924
0.588924
0.58893
0.588935
0.588941
0.588946
0.588946
0.588952
0.588957
0.588963
0.588968
0.588968
0.588974
0.588979
0.588985
0.588991
0.588991
0.588996
0.589002
0.589007
0.589013
0.589013
0.589019
0.589024
0.58903
0.589036
0.589036
0.589041
0.589047
0.589053
0.589059
0.589059
0.589064
0.58907
0.589076
0.589082
0.589082
0.589087
0.589093
0.589099
0.589105
0.589105
0.589111
0.589116
0.589122
0.589128
0.589128
0.589134
0.58914
0.589146
0.589152
0.589152
0.589158
0.589163
0.589169
0.589175
0.589175
0.589181
0.589187
0.589193
0.589199
0.589199
0.589205
0.589211
0.589217
0.589223
0.589223
0.589229
0.589235
0.589241
0.589248
0.589248
0.589254
0.58926
0.589266
0.589272
0.589272
0.589278
0.589284
0.58929
0.589296
0.589296
0.589302
0.589308
0.589313
0.589319
0.589319
0.589325
0.589331
0.589337
0.589342
0.589342
0.589348
0.589354
0.58936
0.589366
0.589366
0.589371
0.589377
0.589383
0.589389
0.589389
0.589395
0.589401
0.589407
0.589413
0.589413
0.589418
0.589424
0.58943
0.589436
0.589436
0.589442
0.589448
0.589454
0.58946
0.58946
0.589466
0.589472
0.589478
0.589484
0.589484
0.58949
0.589496
0.589502
0.589508
0.589508
0.589514
0.58952
0.589526
0.589533
0.589533
0.589539
0.589545
0.589551
0.589557
0.589557
0.589563
0.589569
0.589576
0.589582
0.589582
0.589588
0.589594
0.5896
0.589607
0.589607
0.589613
0.589619
0.589625
0.589631
0.589631
0.589638
0.589644
0.58965
0.589656
0.589656
0.589662
0.589668
0.589674
0.58968
0.58968
0.589686
0.589692
0.589698
0.589704
0.589704
0.589709
0.589715
0.589721
0.589727
0.589727
0.589733
0.589739
0.589745
0.589751
0.589751
0.589757
0.589763
0.589769
0.589775
0.589775
0.589781
0.589787
0.589793
0.589799
0.589799
0.589805
0.589811
0.589817
0.589823
0.589823
0.589829
0.589836
0.589842
0.589848
0.589848
0.589854
0.58986
0.589866
0.589872
0.589872
0.589878
0.589885
0.589891
0.589897
0.589897
0.589903
0.589909
0.589916
0.589922
0.589922
0.589928
0.589934
0.589941
0.589947
0.589947
0.589953
0.589959
0.589966
0.589972
0.589972
0.589978
0.589984
0.58999
0.589996
0.589996
0.590002
0.590008
0.590014
0.59002
0.59002
0.590026
0.590032
0.590038
0.590044
0.590044
0.59005
0.590056
0.590062
0.590068
0.590068
0.590073
0.590079
0.590085
0.590091
0.590091
0.590097
0.590103
0.590109
0.590115
0.590115
0.590121
0.590127
0.590134
0.59014
0.59014
0.590146
0.590152
0.590158
0.590164
0.590164
0.59017
0.590176
0.590182
0.590188
0.590188
0.590194
0.590201
0.590207
0.590213
0.590213
0.590219
0.590225
0.590231
0.590238
0.590238
0.590244
0.59025
0.590256
0.590262
0.590262
0.590269
0.590275
0.590281
0.590287
0.590287
0.590293
0.590299
0.590305
0.590311
0.590311
0.590317
0.590323
0.590329
0.590335
0.590335
0.59034
0.590346
0.590352
0.590358
0.590358
0.590364
0.59037
0.590376
0.590382
0.590382
0.590387
0.590393
0.590399
0.590405
0.590405
0.590411
0.590417
0.590423
0.590429
0.590429
0.590435
0.590441
0.590447
0.590453
0.590453
0.590459
0.590465
0.590471
0.590477
0.590477
0.590483
0.590489
0.590495
0.590501
0.590501
0.590507
0.590513
0.590519
0.590525
0.590525
0.590531
0.590538
0.590544
0.59055
0.59055
0.590556
0.590562
0.590568
0.590574
0.590574
0.59058
0.590586
0.590592
0.590597
0.590597
0.590603
0.590609
0.590615
0.590621
0.590621
0.590626
0.590632
0.590638
0.590644
0.590644
0.590649
0.590655
0.590661
0.590667
0.590667
0.590672
0.590678
0.590684
0.59069
0.59069
0.590696
0.590701
0.590707
0.590713
0.590713
0.590719
0.590725
0.590731
0.590737
0.590737
0.590742
0.590748
0.590754
0.59076
0.59076
0.590766
0.590772
0.590778
0.590784
0.590784
0.59079
0.590796
0.590801
0.590807
0.590807
0.590813
0.590819
0.590825
0.590831
0.590831
0.590837
0.590843
0.590848
0.590854
0.590854
0.59086
0.590866
0.590871
0.590877
0.590877
0.590882
0.590888
0.590894
0.590899
0.590899
0.590905
0.59091
0.590916
0.590922
0.590922
0.590927
0.590933
0.590938
0.590944
0.590944
0.59095
0.590955
0.590961
0.590967
0.590967
0.590972
0.590978
0.590984
0.590989
0.590989
0.590995
0.591001
0.591007
0.591012
0.591012
0.591018
0.591024
0.591029
0.591035
0.591035
0.591041
0.591047
0.591052
0.591058
0.591058
0.591064
0.59107
0.591075
0.591081
0.591081
0.591087
0.591092
0.591098
0.591103
0.591103
0.591109
0.591114
0.59112
0.591125
0.591125
0.591131
0.591136
0.591141
0.591147
0.591147
0.591152
0.591158
0.591163
0.591168
0.591168
0.591174
0.591179
0.591185
0.59119
0.59119
0.591196
0.591201
0.591207
0.591212
0.591212
0.591218
0.591223
0.591229
0.591234
0.591234
0.59124
0.591245
0.591251
0.591256
0.591256
0.591262
0.591267
0.591273
0.591278
0.591278
0.591284
0.591289
0.591295
0.5913
0.5913
0.591306
0.591311
0.591317
0.591322
0.591322
0.591327
0.591333
0.591338
0.591343
0.591343
0.591348
0.591354
0.591359
0.591364
0.591364
0.591369
0.591374
0.59138
0.591385
0.591385
0.59139
0.591395
0.5914
0.591406
0.591406
0.591411
0.591416
0.591422
0.591427
0.591427
0.591432
0.591437
0.591443
0.591448
0.591448
0.591453
0.591458
0.591464
0.591469
0.591469
0.591474
0.59148
0.591485
0.59149
0.59149
0.591496
0.591501
0.591506
0.591511
0.591511
0.591517
0.591522
0.591527
0.591532
0.591532
0.591537
0.591542
0.591547
0.591552
0.591552
0.591557
0.591562
0.591567
0.591572
0.591572
0.591577
0.591582
0.591587
0.591592
0.591592
0.591597
0.591602
0.591607
0.591612
0.591612
0.591617
0.591622
0.591628
0.591633
0.591633
0.591638
0.591643
0.591648
0.591653
0.591653
0.591658
0.591663
0.591668
0.591673
0.591673
0.591678
0.591683
0.591688
0.591693
0.591693
0.591698
0.591703
0.591708
0.591713
0.591713
0.591718
0.591723
0.591728
0.591733
0.591733
0.591738
0.591743
0.591747
0.591752
0.591752
0.591757
0.591762
0.591766
0.591771
0.591771
0.591776
0.591781
0.591785
0.59179
0.59179
0.591795
0.5918
0.591805
0.591809
0.591809
0.591814
0.591819
0.591824
0.591829
0.591829
0.591834
0.591838
0.591843
0.591848
0.591848
0.591853
0.591858
0.591863
0.591867
0.591867
0.591872
0.591877
0.591882
0.591887
0.591887
0.591891
0.591896
0.591901
0.591905
0.591905
0.59191
0.591914
0.591919
0.591924
0.591924
0.591928
0.591933
0.591937
0.591942
0.591942
0.591946
0.591951
0.591955
0.59196
0.59196
0.591964
0.591969
0.591974
0.591978
0.591978
0.591983
0.591987
0.591992
0.591997
0.591997
0.592001
0.592006
0.59201
0.592015
0.592015
0.59202
0.592024
0.592029
0.592033
0.592033
0.592038
0.592042
0.592047
0.592051
0.592051
0.592056
0.59206
0.592065
0.592069
0.592069
0.592073
0.592078
0.592082
0.592086
0.592086
0.592091
0.592095
0.592099
0.592104
0.592104
0.592108
0.592112
0.592117
0.592121
0.592121
0.592125
0.59213
0.592134
0.592138
0.592138
0.592143
0.592147
0.592151
0.592156
0.592156
0.59216
0.592164
0.592169
0.592173
0.592173
0.592178
0.592182
0.592186
0.592191
0.592191
0.592195
0.592199
0.592203
0.592208
0.592208
0.592212
0.592216
0.59222
0.592224
0.592224
0.592228
0.592232
0.592236
0.59224
0.59224
0.592245
0.592249
0.592253
0.592257
0.592257
0.592261
0.592265
0.592269
0.592273
0.592273
0.592277
0.592281
0.592286
0.59229
0.59229
0.592294
0.592298
0.592302
0.592306
0.592306
0.59231
0.592314
0.592319
0.592323
0.592323
0.592327
0.592331
0.592335
0.592339
0.592339
0.592343
0.592347
0.592351
0.592355
0.592355
0.592359
0.592362
0.592366
0.59237
0.59237
0.592374
0.592378
0.592382
0.592386
0.592386
0.59239
0.592393
0.592397
0.592401
0.592401
0.592405
0.592409
0.592413
0.592417
0.592417
0.592421
0.592424
0.592428
0.592432
0.592432
0.592436
0.59244
0.592444
0.592448
0.592448
0.592452
0.592456
0.592459
0.592463
0.592463
0.592467
0.592471
0.592474
0.592478
0.592478
0.592482
0.592486
0.592489
0.592493
0.592493
0.592496
0.5925
0.592504
0.592507
0.592507
0.592511
0.592515
0.592518
0.592522
0.592522
0.592526
0.592529
0.592533
0.592537
0.592537
0.59254
0.592544
0.592548
0.592551
0.592551
0.592555
0.592559
0.592562
0.592566
0.592566
0.59257
0.592573
0.592577
0.59258
0.59258
0.592584
0.592588
0.592591
0.592595
0.592595
0.592598
0.592601
0.592605
0.592608
0.592608
0.592612
0.592615
0.592619
0.592622
0.592622
0.592625
0.592629
0.592632
0.592636
0.592636
0.592639
0.592643
0.592646
0.59265
0.59265
0.592653
0.592656
0.59266
0.592663
0.592663
0.592667
0.59267
0.592674
0.592677
0.592677
0.592681
0.592684
0.592687
0.592691
0.592691
0.592694
0.592697
0.592701
0.592704
0.592704
0.592707
0.59271
0.592714
0.592717
0.592717
0.59272
0.592723
0.592726
0.59273
0.59273
0.592733
0.592736
0.592739
0.592743
0.592743
0.592746
0.592749
0.592752
0.592756
0.592756
0.592759
0.592762
0.592765
0.592769
0.592769
0.592772
0.592775
0.592778
0.592781
0.592781
0.592785
0.592788
0.592791
0.592794
0.592794
0.592797
0.5928
0.592803
0.592806
0.592806
0.592809
0.592812
0.592815
0.592818
0.592818
0.592821
0.592824
0.592827
0.59283
0.59283
0.592833
0.592836
0.592839
0.592842
0.592842
0.592846
0.592849
0.592852
0.592855
0.592855
0.592858
0.592861
0.592864
0.592867
0.592867
0.59287
0.592873
0.592876
0.592879
0.592879
0.592882
0.592884
0.592887
0.59289
0.59289
0.592893
0.592896
0.592899
0.592902
0.592902
0.592904
0.592907
0.59291
0.592913
0.592913
0.592916
0.592919
0.592921
0.592924
0.592924
0.592927
0.59293
0.592933
0.592936
0.592936
0.592939
0.592941
0.592944
0.592947
0.592947
0.59295
0.592953
0.592956
0.592958
0.592958
0.592961
0.592964
0.592967
0.592969
0.592969
0.592972
0.592975
0.592977
0.59298
0.59298
0.592983
0.592985
0.592988
0.592991
0.592991
0.592993
0.592996
0.592999
0.593001
0.593001
0.593004
0.593007
0.593009
0.593012
0.593012
0.593015
0.593017
0.59302
0.593023
0.593023
0.593025
0.593028
0.59303
0.593033
0.593033
0.593036
0.593038
0.593041
0.593043
0.593043
0.593046
0.593048
0.593051
0.593053
0.593053
0.593056
0.593058
0.593061
0.593063
0.593063
0.593066
0.593068
0.593071
0.593073
0.593073
0.593076
0.593078
0.593081
0.593083
0.593083
0.593086
0.593088
0.593091
0.593093
0.593093
0.593096
0.593098
0.5931
0.593103
0.593103
0.593105
0.593108
0.59311
0.593112
0.593112
0.593115
0.593117
0.593119
0.593122
0.593122
0.593124
0.593126
0.593129
0.593131
0.593131
0.593133
0.593136
0.593138
0.59314
0.59314
0.593143
0.593145
0.593147
0.59315
0.59315
0.593152
0.593154
0.593157
0.593159
0.593159
0.593161
0.593164
0.593166
0.593168
0.593168
0.59317
0.593173
0.593175
0.593177
0.593177
0.593179
0.593181
0.593183
0.593186
0.593186
0.593188
0.59319
0.593192
0.593194
0.593194
0.593196
0.593199
0.593201
0.593203
0.593203
0.593205
0.593207
0.59321
0.593212
0.593212
0.593214
0.593216
0.593218
0.59322
0.59322
0.593222
0.593225
0.593227
0.593229
0.593229
0.593231
0.593233
0.593235
0.593237
0.593237
0.593239
0.593241
0.593243
0.593245
0.593245
0.593247
0.593249
0.593251
0.593253
0.593253
0.593255
0.593257
0.593259
0.593261
0.593261
0.593263
0.593265
0.593267
0.593269
0.593269
0.593271
0.593273
0.593275
0.593277
0.593277
0.593279
0.593281
0.593283
0.593285
0.593285
0.593287
0.593289
0.593291
0.593293
0.593293
0.593295
0.593297
0.593298
0.5933
0.5933
0.593302
0.593304
0.593306
0.593308
0.593308
0.59331
0.593312
0.593313
0.593315
0.593315
0.593317
0.593319
0.593321
0.593323
0.593323
0.593325
0.593327
0.593328
0.59333
0.59333
0.593332
0.593334
0.593336
0.593337
0.593337
0.593339
0.593341
0.593343
0.593344
0.593344
0.593346
0.593348
0.59335
0.593351
0.593351
0.593353
0.593355
0.593357
0.593359
0.593359
0.59336
0.593362
0.593364
0.593366
0.593366
0.593367
0.593369
0.593371
0.593372
0.593372
0.593374
0.593376
0.593378
0.593379
0.593379
0.593381
0.593382
0.593384
0.593386
0.593386
0.593387
0.593389
0.593391
0.593392
0.593392
0.593394
0.593396
0.593397
0.593399
0.593399
0.593401
0.593402
0.593404
0.593405
0.593405
0.593407
0.593409
0.59341
0.593412
0.593412
0.593413
0.593415
0.593417
0.593418
0.593418
0.59342
0.593421
0.593423
0.593424
0.593424
0.593426
0.593427
0.593429
0.593431
0.593431
0.593432
0.593434
0.593435
0.593437
0.593437
0.593438
0.59344
0.593441
0.593443
0.593443
0.593444
0.593446
0.593447
0.593449
0.593449
0.59345
0.593452
0.593453
0.593455
0.593455
0.593456
0.593458
0.593459
0.59346
0.59346
0.593462
0.593463
0.593465
0.593466
0.593466
0.593468
0.593469
0.59347
0.593472
0.593472
0.593473
0.593475
0.593476
0.593477
0.593477
0.593479
0.59348
0.593482
0.593483
0.593483
0.593485
0.593486
0.593487
0.593489
0.593489
0.59349
0.593491
0.593493
0.593494
0.593494
0.593495
0.593497
0.593498
0.593499
0.593499
0.593501
0.593502
0.593503
0.593505
0.593505
0.593506
0.593507
0.593509
0.59351
0.59351
0.593511
0.593513
0.593514
0.593515
0.593515
0.593517
0.593518
0.593519
0.59352
0.59352
0.593522
0.593523
0.593524
0.593525
0.593525
0.593527
0.593528
0.593529
0.59353
0.59353
0.593532
0.593533
0.593534
0.593535
0.593535
0.593537
0.593538
0.593539
0.59354
0.59354
0.593541
0.593543
0.593544
0.593545
0.593545
0.593546
0.593548
0.593549
0.59355
0.59355
0.593551
0.593552
0.593553
0.593555
0.593555
0.593556
0.593557
0.593558
0.593559
0.593559
0.59356
0.593562
0.593563
0.593564
0.593564
0.593565
0.593566
0.593567
0.593568
0.593568
0.59357
0.593571
0.593572
0.593573
0.593573
0.593574
0.593575
0.593576
0.593577
0.593577
0.593579
0.59358
0.593581
0.593582
0.593582
0.593583
0.593584
0.593585
0.593586
0.593586
0.593587
0.593588
0.593589
0.59359
0.59359
0.593591
0.593593
0.593594
0.593595
0.593595
0.593596
0.593597
0.593598
0.593599
0.593599
0.5936
0.593601
0.593602
0.593603
0.593603
0.593604
0.593605
0.593606
0.593607
0.593607
0.593608
0.593609
0.59361
0.593611
0.593611
0.593612
0.593613
0.593614
0.593615
0.593615
0.593616
0.593617
0.593618
0.593619
0.593619
0.59362
0.593621
0.593622
0.593623
0.593623
0.593624
0.593625
0.593626
0.593627
0.593627
0.593628
0.593629
0.59363
0.593631
0.593631
0.593632
0.593633
0.593634
0.593635
0.593635
0.593635
0.593636
0.593637
0.593638
0.593638
0.593639
0.59364
0.593641
0.593642
0.593642
0.593643
0.593644
0.593645
0.593646
0.593646
0.593647
0.593648
0.593648
0.593649
0.593649
0.59365
0.593651
0.593652
0.593653
0.593653
0.593654
0.593655
0.593656
0.593656
0.593656
0.593657
0.593658
0.593659
0.59366
0.59366
0.593661
0.593662
0.593663
0.593663
0.593663
0.593664
0.593665
0.593666
0.593667
0.593667
0.593668
0.593669
0.593669
0.59367
0.59367
0.593671
0.593672
0.593673
0.593674
0.593674
0.593674
0.593675
0.593676
0.593677
0.593677
0.593678
0.593679
0.593679
0.59368
0.59368
0.593681
0.593682
0.593683
0.593683
0.593683
0.593684
0.593685
0.593686
0.593687
0.593687
0.593687
0.593688
0.593689
0.59369
0.59369
0.593691
0.593691
0.593692
0.593693
0.593693
0.593694
0.593694
0.593695
0.593696
0.593696
0.593697
0.593698
0.593698
0.593699
0.593699
0.5937
0.593701
0.593701
0.593702
0.593702
0.593703
0.593704
0.593704
0.593705
0.593705
0.593706
0.593707
0.593707
0.593708
0.593708
0.593709
0.59371
0.59371
0.593711
0.593711
0.593712
0.593713
0.593713
0.593714
0.593714
0.593715
0.593716
0.593716
0.593717
0.593717
0.593718
0.593718
0.593719
0.59372
0.59372
0.593721
0.593721
0.593722
0.593723
0.593723
0.593723
0.593724
0.593725
0.593726
0.593726
0.593726
0.593727
0.593728
0.593728
0.593728
0.593729
0.59373
0.59373
0.593731
0.593731
0.593732
0.593733
0.593733
0.593734
0.593734
0.593735
0.593735
0.593736
0.593737
0.593737
0.593737
0.593738
0.593739
0.593739
0.593739
0.59374
0.593741
0.593741
0.593742
0.593742
0.593743
0.593743
0.593744
0.593745
0.593745
0.593745
0.593746
0.593747
0.593747
0.593747
0.593748
0.593749
0.593749
0.59375
0.59375
0.593751
0.593751
0.593752
0.593753
0.593753
0.593753
0.593754
0.593754
0.593755
0.593755
0.593756
0.593756
0.593757
0.593758
0.593758
0.593758
0.593759
0.59376
0.59376
0.59376
0.593761
0.593761
0.593762
0.593763
0.593763
0.593763
0.593764
0.593765
0.593765
0.593765
0.593766
0.593766
0.593767
0.593768
0.593768
0.593768
0.593769
0.59377
0.59377
0.59377
0.593771
0.593771
0.593772
0.593773
0.593773
0.593773
0.593774
0.593775
0.593775
0.593775
0.593776
0.593776
0.593777
0.593778
0.593778
0.593778
0.593779
0.593779
0.59378
0.59378
0.593781
0.593781
0.593782
0.593782
0.593782
0.593783
0.593784
0.593784
0.593785
0.593785
0.593785
0.593786
0.593787
0.593787
0.593787
0.593788
0.593788
0.593789
0.593789
0.593789
0.59379
0.593791
0.593791
0.593792
0.593792
0.593792
0.593793
0.593794
0.593794
0.593794
0.593795
0.593795
0.593796
0.593796
0.593796
0.593797
0.593798
0.593798
0.593799
0.593799
0.593799
0.5938
0.593801
0.593801
0.593801
0.593802
0.593802
0.593803
0.593803
0.593803
0.593804
0.593805
0.593805
0.593806
0.593806
0.593806
0.593807
0.593807
0.593808
0.593808
0.593809
0.593809
0.59381
0.59381
0.59381
0.593811
0.593811
0.593812
0.593813
0.593813
0.593813
0.593814
0.593814
0.593815
0.593815
0.593815
0.593816
0.593817
0.593817
0.593817
0.593818
0.593818
0.593819
0.593819
0.593819
0.59382
0.59382
0.593821
0.593822
0.593822
0.593822
0.593823
0.593823
0.593824
0.593824
0.593824
0.593825
0.593826
0.593826
0.593826
0.593827
0.593827
0.593828
0.593828
0.593828
0.593829
0.593829
0.59383
0.593831
0.593831
0.593831
0.593832
0.593832
0.593833
0.593833
0.593833
0.593834
0.593834
0.593835
0.593835
0.593836
0.593836
0.593837
0.593837
0.593837
0.593838
0.593838
0.593839
0.593839
0.593839
0.59384
0.593841
0.593841
0.593842
0.593842
0.593842
0.593843
0.593843
0.593844
0.593844
0.593844
0.593845
0.593846
0.593846
0.593846
0.593847
0.593847
0.593848
0.593848
0.593848
0.593849
0.59385
0.59385
0.593851
0.593851
0.593851
0.593852
0.593852
0.593853
0.593853
0.593853
0.593854
0.593855
0.593855
0.593855
0.593856
0.593856
0.593857
0.593857
0.593857
0.593858
0.593858
0.593859
0.59386
0.59386
0.59386
0.593861
0.593861
0.593862
0.593862
0.593862
0.593863
0.593863
0.593864
0.593864
0.593865
0.593865
0.593866
0.593866
0.593866
0.593867
0.593867
0.593868
0.593869
0.593869
0.593869
0.59387
0.59387
0.593871
0.593871
0.593871
0.593872
0.593873
0.593873
0.593873
0.593874
0.593874
0.593875
0.593875
0.593875
0.593876
0.593877
0.593877
0.593878
0.593878
0.593878
0.593879
0.593879
0.59388
0.59388
0.593881
0.593881
0.593882
0.593882
0.593882
0.593883
0.593883
0.593884
0.593885
0.593885
0.593885
0.593886
0.593886
0.593887
0.593887
0.593887
0.593888
0.593889
0.593889
0.593889
0.59389
0.59389
0.593891
0.593892
0.593892
0.593892
0.593893
0.593893
0.593894
0.593894
0.593894
0.593895
0.593896
0.593896
0.593896
0.593897
0.593897
0.593898
0.593899
0.593899
0.593899
0.5939
0.5939
0.593901
0.593901
0.593902
0.593902
0.593903
0.593903
0.593903
0.593904
0.593904
0.593905
0.593906
0.593906
0.593906
0.593907
0.593907
0.593908
0.593908
0.593909
0.593909
0.59391
0.593911
0.593911
0.593911
0.593912
0.593912
0.593913
0.593913
0.593914
0.593914
0.593915
0.593915
0.593915
0.593916
0.593917
0.593917
0.593918
0.593918
0.593918
0.593919
0.59392
0.59392
0.59392
0.593921
0.593922
0.593922
0.593923
0.593923
0.593923
0.593924
0.593925
0.593925
0.593925
0.593926
0.593926
0.593927
0.593928
0.593928
0.593928
0.593929
0.59393
0.59393
0.59393
0.593931
0.593932
0.593932
0.593933
0.593933
0.593933
0.593934
0.593935
0.593935
0.593935
0.593936
0.593937
0.593937
0.593938
0.593938
0.593939
0.593939
0.59394
0.593941
0.593941
0.593941
0.593942
0.593942
0.593943
0.593943
0.593944
0.593944
0.593945
0.593946
0.593946
0.593946
0.593947
0.593948
0.593948
0.593948
0.593949
0.59395
0.59395
0.593951
0.593951
0.593952
0.593952
0.593953
0.593954
0.593954
0.593954
0.593955
0.593956
0.593956
0.593956
0.593957
0.593958
0.593958
0.593959
0.593959
0.59396
0.59396
0.593961
0.593962
0.593962
0.593963
0.593963
0.593964
0.593965
0.593965
0.593965
0.593966
0.593967
0.593967
0.593967
0.593968
0.593969
0.593969
0.59397
0.59397
0.593971
0.593972
0.593972
0.593973
0.593973
0.593974
0.593974
0.593975
0.593976
0.593976
0.593976
0.593977
0.593978
0.593979
0.593979
0.593979
0.59398
0.593981
0.593981
0.593981
0.593982
0.593983
0.593984
0.593984
0.593984
0.593985
0.593986
0.593987
0.593987
0.593987
0.593988
0.593989
0.593989
0.59399
0.59399
0.593991
0.593992
0.593992
0.593993
0.593993
0.593994
0.593995
0.593995
0.593996
0.593996
0.593997
0.593998
0.593998
0.593999
0.593999
0.594
0.594001
0.594001
0.594002
0.594002
0.594003
0.594004
0.594004
0.594005
0.594005
0.594006
0.594007
0.594008
0.594008
0.594008
0.594009
0.59401
0.594011
0.594011
0.594011
0.594012
0.594013
0.594014
0.594014
0.594014
0.594015
0.594016
0.594017
0.594018
0.594018
0.594018
0.594019
0.59402
0.594021
0.594021
0.594022
0.594022
0.594023
0.594024
0.594024
0.594025
0.594026
0.594026
0.594027
0.594027
0.594028
0.594029
0.59403
0.59403
0.59403
0.594031
0.594032
0.594033
0.594034
0.594034
0.594035
0.594035
0.594036
0.594037
0.594037
0.594038
0.594039
0.59404
0.59404
0.59404
0.594041
0.594042
0.594043
0.594044
0.594044
0.594045
0.594045
0.594046
0.594047
0.594047
0.594048
0.594049
0.59405
0.594051
0.594051
0.594051
0.594052
0.594053
0.594054
0.594054
0.594055
0.594056
0.594057
0.594057
0.594057
0.594058
0.594059
0.59406
0.594061
0.594061
0.594062
0.594063
0.594064
0.594064
0.594064
0.594065
0.594066
0.594067
0.594068
0.594068
0.594069
0.59407
0.594071
0.594071
0.594071
0.594072
0.594073
0.594074
0.594075
0.594075
0.594076
0.594077
0.594078
0.594079
0.594079
0.59408
0.594081
0.594081
0.594082
0.594082
0.594083
0.594084
0.594085
0.594086
0.594086
0.594087
0.594088
0.594089
0.59409
0.59409
0.594091
0.594092
0.594093
0.594094
0.594094
0.594094
0.594095
0.594096
0.594097
0.594097
0.594098
0.594099
0.5941
0.594101
0.594101
0.594102
0.594103
0.594104
0.594105
0.594105
0.594106
0.594107
0.594108
0.594109
0.594109
0.59411
0.594111
0.594112
0.594113
0.594113
0.594114
0.594115
0.594116
0.594117
0.594117
0.594118
0.594119
0.59412
0.594121
0.594121
0.594122
0.594123
0.594124
0.594125
0.594125
0.594126
0.594127
0.594128
0.594129
0.594129
0.59413
0.594131
0.594132
0.594133
0.594133
0.594134
0.594135
0.594136
0.594137
0.594137
0.594138
0.594139
0.59414
0.594141
0.594141
0.594142
0.594143
0.594144
0.594145
0.594145
0.594146
0.594147
0.594148
0.594149
0.594149
0.59415
0.594151
0.594152
0.594153
0.594153
0.594155
0.594156
0.594157
0.594158
0.594158
0.594159
0.59416
0.594161
0.594162
0.594162
0.594163
0.594164
0.594165
0.594166
0.594166
0.594167
0.594168
0.59417
0.594171
0.594171
0.594172
0.594173
0.594174
0.594175
0.594175
0.594176
0.594177
0.594178
0.594179
0.594179
0.594181
0.594182
0.594183
0.594184
0.594184
0.594185
0.594186
0.594187
0.594188
0.594188
0.59419
0.594191
0.594192
0.594193
0.594193
0.594194
0.594195
0.594196
0.594198
0.594198
0.594199
0.5942
0.594201
0.594202
0.594202
0.594203
0.594204
0.594206
0.594207
0.594207
0.594208
0.594209
0.59421
0.594211
0.594211
0.594213
0.594214
0.594215
0.594216
0.594216
0.594217
0.594218
0.59422
0.594221
0.594221
0.594222
0.594223
0.594224
0.594226
0.594226
0.594227
0.594228
0.594229
0.59423
0.59423
0.594232
0.594233
0.594234
0.594235
0.594235
0.594237
0.594238
0.594239
0.59424
0.59424
0.594241
0.594243
0.594244
0.594245
0.594245
0.594246
0.594248
0.594249
0.59425
0.59425
0.594251
0.594253
0.594254
0.594255
0.594255
0.594256
0.594258
0.594259
0.59426
0.59426
0.594261
0.594263
0.594264
0.594265
0.594265
0.594266
0.594268
0.594269
0.59427
0.59427
0.594272
0.594273
0.594274
0.594275
0.594275
0.594277
0.594278
0.594279
0.594281
0.594281
0.594282
0.594283
0.594284
0.594286
0.594286
0.594287
0.594288
0.59429
0.594291
0.594291
0.594292
0.594294
0.594295
0.594296
0.594296
0.594298
0.594299
0.5943
0.594302
0.594302
0.594303
0.594304
0.594306
0.594307
0.594307
0.594308
0.59431
0.594311
0.594312
0.594312
0.594314
0.594315
0.594317
0.594318
0.594318
0.594319
0.594321
0.594322
0.594323
0.594323
0.594325
0.594326
0.594328
0.594329
0.594329
0.59433
0.594332
0.594333
0.594334
0.594334
0.594336
0.594337
0.594339
0.59434
0.59434
0.594341
0.594343
0.594344
0.594346
0.594346
0.594347
0.594349
0.59435
0.594351
0.594351
0.594353
0.594354
0.594356
0.594357
0.594357
0.594359
0.59436
0.594361
0.594363
0.594363
0.594364
0.594366
0.594367
0.594369
0.594369
0.59437
0.594372
0.594373
0.594374
0.594374
0.594376
0.594377
0.594379
0.59438
0.59438
0.594382
0.594383
0.594385
0.594386
0.594386
0.594388
0.594389
0.594391
0.594392
0.594392
0.594394
0.594395
0.594397
0.594398
0.594398
0.5944
0.594401
0.594403
0.594404
0.594404
0.594406
0.594407
0.594409
0.59441
0.59441
0.594412
0.594413
0.594415
0.594417
0.594417
0.594418
0.59442
0.594421
0.594423
0.594423
0.594424
0.594426
0.594427
0.594429
0.594429
0.59443
0.594432
0.594434
0.594435
0.594435
0.594437
0.594438
0.59444
0.594441
0.594441
0.594443
0.594445
0.594446
0.594448
0.594448
0.594449
0.594451
0.594452
0.594454
0.594454
0.594456
0.594457
0.594459
0.594461
0.594461
0.594462
0.594464
0.594465
0.594467
0.594467
0.594469
0.59447
0.594472
0.594473
0.594473
0.594475
0.594477
0.594478
0.59448
0.59448
0.594482
0.594483
0.594485
0.594487
0.594487
0.594488
0.59449
0.594492
0.594493
0.594493
0.594495
0.594497
0.594498
0.5945
0.5945
0.594502
0.594503
0.594505
0.594507
0.594507
0.594508
0.59451
0.594512
0.594513
0.594513
0.594515
0.594517
0.594518
0.59452
0.59452
0.594522
0.594524
0.594525