<?xml version="1.0"?>
<VTKFile type="UnstructuredGrid" version="0.1" byte_order="LittleEndian">
<UnstructuredGrid>
<Piece NumberOfPoints="5000" NumberOfCells="4000">
<PointData Scalars="Reaction 0">
<DataArray type="Float32" Name="Reaction 0" format="ascii">
0.639612
0.639612
0.639612
0.639612
0.639612
0.639612
0.639612
0.639612
0.639612
0.639612
0.639612
0.639612
0.639612
0.639612
0.639612
0.639612
0.639613
0.639613
0.639613
0.639613
0.639613
0.639613
0.639613
0.639613
0.639613
0.639613
0.639613
0.639613
0.639613
0.639613
0.639613
0.639613
0.639613
0.639613
0.639614
0.639614
0.639614
0.639614
0.639614
0.639614
0.639614
0.639614
0.639614
0.639614
0.639614
0.639614
0.639615
0.639615
0.639615
0.639615
0.639615
0.639615
0.639615
0.639615
0.639615
0.639615
0.639616
0.639616
0.639616
0.639616
0.639616
0.639616
0.639616
0.639617
0.639617
0.639617
0.639617
0.639617
0.639617
0.639617
0.639617
0.639618
0.639618
0.639618
0.639618
0.639618
0.639618
0.639619
0.639619
0.639619
0.639619
0.639619
0.63962
0.63962
0.63962
0.63962
0.63962
0.63962
0.639621
0.639621
0.639621
0.639621
0.639621
0.639622
0.639622
0.639622
0.639622
0.639622
0.639623
0.639623
0.639623
0.639623
0.639624
0.639624
0.639624
0.639624
0.639624
0.639625
0.639625
0.639625
0.639625
0.639626
0.639626
0.639626
0.639626
0.639626
0.639627
0.639627
0.639627
0.639628
0.639628
0.639628
0.639628
0.639629
0.639629
0.639629
0.639629
0.63963
0.63963
0.63963
0.63963
0.639631
0.639631
0.639631
0.639632
0.639632
0.639632
0.639633
0.639633
0.639633
0.639633
0.639634
0.639634
0.639634
0.639635
0.639635
0.639635
0.639636
0.639636
0.639636
0.639636
0.639637
0.639637
0.639638
0.639638
0.639638
0.639638
0.639639
0.639639
0.63964
0.63964
0.63964
0.639641
0.639641
0.639641
0.639641
0.639642
0.639642
0.639643
0.639643
0.639643
0.639644
0.639644
0.639645
0.639645
0.639645
0.639646
0.639646
0.639647
0.639647
0.639647
0.639647
0.639648
0.639648
0.639649
0.639649
0.639649
0.63965
0.63965
0.639651
0.639651
0.639651
0.639652
0.639653
0.639653
0.639653
0.639654
0.639654
0.639655
0.639655
0.639655
0.639656
0.639656
0.639657
0.639657
0.639657
0.639658
0.639658
0.639659
0.63966
0.63966
0.63966
0.639661
0.639661
0.639662
0.639662
0.639662
0.639663
0.639664
0.639664
0.639664
0.639665
0.639665
0.639666
0.639667
0.639667
0.639667
0.639668
0.639668
0.639669
0.639669
0.63967
0.63967
0.639671
0.639672
0.639672
0.639672
0.639673
0.639673
0.639674
0.639674
0.639675
0.639675
0.639676
0.639677
0.639677
0.639677
0.639678
0.639679
0.639679
0.639679
0.63968
0.639681
0.639681
0.639682
0.639682
0.639683
0.639683
0.639684
0.639685
0.639685
0.639685
0.639686
0.639687
0.639688
0.639688
0.639688
0.639689
0.63969
0.63969
0.63969
0.639691
0.639692
0.639693
0.639693
0.639693
0.639694
0.639695
0.639696
0.639696
0.639696
0.639697
0.639698
0.639699
0.639699
0.639699
0.6397
0.639701
0.639702
0.639703
0.639703
0.639703
0.639704
0.639705
0.639706
0.639706
0.639706
0.639707
0.639708
0.639709
0.639709
0.63971
0.63971
0.639711
0.639712
0.639712
0.639713
0.639714
0.639715
0.639715
0.639715
0.639716
0.639717
0.639718
0.639719
0.639719
0.63972
0.63972
0.639721
0.639722
0.639722
0.639723
0.639724
0.639725
0.639726
0.639726
0.639726
0.639727
0.639728
0.639729
0.639729
0.63973
0.639731
0.639732
0.639733
0.639733
0.639734
0.639735
0.639735
0.639736
0.639736
0.639737
0.639738
0.639739
0.63974
0.63974
0.639741
0.639742
0.639743
0.639744
0.639744
0.639745
0.639746
0.639747
0.639748
0.639748
0.639748
0.639749
0.63975
0.639751
0.639751
0.639752
0.639753
0.639754
0.639755
0.639755
0.639756
0.639757
0.639758
0.639759
0.639759
0.63976
0.639761
0.639762
0.639763
0.639763
0.639764
0.639765
0.639766
0.639767
0.639767
0.639768
0.639769
0.63977
0.639771
0.639771
0.639772
0.639773
0.639774
0.639776
0.639776
0.639777
0.639778
0.639779
0.63978
0.63978
0.639781
0.639782
0.639783
0.639784
0.639784
0.639785
0.639786
0.639787
0.639788
0.639788
0.639789
0.639791
0.639792
0.639793
0.639793
0.639794
0.639795
0.639796
0.639797
0.639797
0.639798
0.639799
0.639801
0.639802
0.639802
0.639803
0.639804
0.639805
0.639806
0.639806
0.639807
0.639808
0.63981
0.639811
0.639811
0.639812
0.639813
0.639814
0.639815
0.639815
0.639817
0.639818
0.639819
0.63982
0.63982
0.639821
0.639822
0.639824
0.639825
0.639825
0.639826
0.639827
0.639828
0.63983
0.63983
0.639831
0.639832
0.639833
0.639835
0.639835
0.639836
0.639837
0.639838
0.639839
0.639839
0.639841
0.639842
0.639843
0.639844
0.639844
0.639846
0.639847
0.639848
0.639849
0.639849
0.639851
0.639852
0.639853
0.639855
0.639855
0.639856
0.639857
0.639858
0.63986
0.63986
0.639861
0.639862
0.639864
0.639865
0.639865
0.639866
0.639867
0.639869
0.63987
0.63987
0.639871
0.639873
0.639874
0.639875
0.639875
0.639877
0.639878
0.639879
0.639881
0.639881
0.639882
0.639883
0.639885
0.639886
0.639886
0.639887
0.639889
0.63989
0.639892
0.639892
0.639893
0.639894
0.639896
0.639897
0.639897
0.639898
0.6399
0.639901
0.639903
0.639903
0.639904
0.639905
0.639907
0.639908
0.639908
0.63991
0.639911
0.639913
0.639914
0.639914
0.639915
0.639917
0.639918
0.63992
0.63992
0.639921
0.639923
0.639924
0.639925
0.639925
0.639927
0.639928
0.63993
0.639931
0.639931
0.639933
0.639934
0.639936
0.639937
0.639937
0.639939
0.63994
0.639942
0.639943
0.639943
0.639945
0.639946
0.639948
0.639949
0.639949
0.639951
0.639952
0.639954
0.639955
0.639955
0.639957
0.639958
0.63996
0.639961
0.639961
0.639963
0.639964
0.639966
0.639967
0.639967
0.639969
0.63997
0.639972
0.639974
0.639974
0.639975
0.639977
0.639978
0.63998
0.63998
0.639981
0.639983
0.639985
0.639986
0.639986
0.639988
0.639989
0.639991
0.639993
0.639993
0.639994
0.639996
0.639997
0.639999
0.639999
0.640001
0.640002
0.640004
0.640005
0.640005
0.640007
0.640009
0.64001
0.640012
0.640012
0.640014
0.640015
0.640017
0.640019
0.640019
0.64002
0.640022
0.640024
0.640025
0.640025
0.640027
0.640029
0.64003
0.640032
0.640032
0.640034
0.640035
0.640037
0.640039
0.640039
0.64004
0.640042
0.640044
0.640045
0.640045
0.640047
0.640049
0.640051
0.640052
0.640052
0.640054
0.640056
0.640057
0.640059
0.640059
0.640061
0.640063
0.640064
0.640066
0.640066
0.640068
0.64007
0.640071
0.640073
0.640073
0.640075
0.640077
0.640079
0.64008
0.64008
0.640082
0.640084
0.640086
0.640087
0.640087
0.640089
0.640091
0.640093
0.640095
0.640095
0.640096
0.640098
0.6401
0.640102
0.640102
0.640104
0.640105
0.640107
0.640109
0.640109
0.640111
0.640113
0.640115
0.640116
0.640116
0.640118
0.64012
0.640122
0.640124
0.640124
0.640126
0.640128
0.640129
0.640131
0.640131
0.640133
0.640135
0.640137
0.640139
0.640139
0.640141
0.640143
0.640144
0.640146
0.640146
0.640148
0.64015
0.640152
0.640154
0.640154
0.640156
0.640158
0.64016
0.640162
0.640162
0.640164
0.640166
0.640167
0.640169
0.640169
0.640171
0.640173
0.640175
0.640177
0.640177
0.640179
0.640181
0.640183
0.640185
0.640185
0.640187
0.640189
0.640191
0.640193
0.640193
0.640195
0.640197
0.640199
0.640201
0.640201
0.640203
0.640205
0.640207
0.640209
0.640209
0.640211
0.640213
0.640215
0.640217
0.640217
0.640219
0.640221
0.640223
0.640225
0.640225
0.640227
0.640229
0.640231
0.640233
0.640233
0.640235
0.640237
0.640239
0.640241
0.640241
0.640243
0.640245
0.640248
0.64025
0.64025
0.640252
0.640254
0.640256
0.640258
0.640258
0.64026
0.640262
0.640264
0.640266
0.640266
0.640268
0.64027
0.640273
0.640275
0.640275
0.640277
0.640279
0.640281
0.640283
0.640283
0.640285
0.640287
0.64029
0.640292
0.640292
0.640294
0.640296
0.640298
0.6403
0.6403
0.640302
0.640305
0.640307
0.640309
0.640309
0.640311
0.640313
0.640315
0.640318
0.640318
0.64032
0.640322
0.640324
0.640326
0.640326
0.640329
0.640331
0.640333
0.640335
0.640335
0.640337
0.64034
0.640342
0.640344
0.640344
0.640346
0.640349
0.640351
0.640353
0.640353
0.640355
0.640357
0.64036
0.640362
0.640362
0.640364
0.640366
0.640369
0.640371
0.640371
0.640373
0.640376
0.640378
0.64038
0.64038
0.640382
0.640385
0.640387
0.640389
0.640389
0.640391
0.640394
0.640396
0.640398
0.640398
0.640401
0.640403
0.640405
0.640408
0.640408
0.64041
0.640412
0.640415
0.640417
0.640417
0.640419
0.640422
0.640424
0.640426
0.640426
0.640429
0.640431
0.640433
0.640436
0.640436
0.640438
0.64044
0.640443
0.640445
0.640445
0.640447
0.64045
0.640452
0.640455
0.640455
0.640457
0.640459
0.640462
0.640464
0.640464
0.640467
0.640469
0.640471
0.640474
0.640474
0.640476
0.640479
0.640481
0.640484
0.640484
0.640486
0.640488
0.640491
0.640493
0.640493
0.640496
0.640498
0.640501
0.640503
0.640503
0.640505
0.640508
0.64051
0.640513
0.640513
0.640515
0.640518
0.64052
0.640523
0.640523
0.640525
0.640528
0.64053
0.640533
0.640533
0.640535
0.640538
0.64054
0.640543
0.640543
0.640545
0.640548
0.64055
0.640553
0.640553
0.640555
0.640558
0.64056
0.640563
0.640563
0.640565
0.640568
0.64057
0.640573
0.640573
0.640576
0.640578
0.640581
0.640583
0.640583
0.640586
0.640588
0.640591
0.640594
0.640594
0.640596
0.640599
0.640601
0.640604
0.640604
0.640606
0.640609
0.640612
0.640614
0.640614
0.640617
0.640619
0.640622
0.640625
0.640625
0.640627
0.64063
0.640633
0.640635
0.640635
0.640638
0.64064
0.640643
0.640646
0.640646
0.640648
0.640651
0.640654
0.640656
0.640656
0.640659
0.640662
0.640664
0.640667
0.640667
0.64067
0.640672
0.640675
0.640678
0.640678
0.64068
0.640683
0.640686
0.640688
0.640688
0.640691
0.640694
0.640697
0.640699
0.640699
0.640702
0.640705
0.640707
0.64071
0.64071
0.640713
0.640716
0.640718
0.640721
0.640721
0.640724
0.640727
0.640729
0.640732
0.640732
0.640735
0.640738
0.64074
0.640743
0.640743
0.640746
0.640749
0.640751
0.640754
0.640754
0.640757
0.64076
0.640763
0.640765
0.640765
0.640768
0.640771
0.640774
0.640777
0.640777
0.640779
0.640782
0.640785
0.640788
0.640788
0.640791
0.640793
0.640796
0.640799
0.640799
0.640802
0.640805
0.640808
0.64081
0.64081
0.640813
0.640816
0.640819
0.640822
0.640822
0.640825
0.640828
0.640831
0.640833
0.640833
0.640836
0.640839
0.640842
0.640845
0.640845
0.640848
0.640851
0.640854
0.640857
0.640857
0.640859
0.640862
0.640865
0.640868
0.640868
0.640871
0.640874
0.640877
0.64088
0.64088
0.640883
0.640886
0.640889
0.640892
0.640892
0.640895
0.640897
0.6409
0.640903
0.640903
0.640906
0.640909
0.640912
0.640915
0.640915
0.640918
0.640921
0.640924
0.640927
0.640927
0.64093
0.640933
0.640936
0.640939
0.640939
0.640942
0.640945
0.640948
0.640951
0.640951
0.640954
0.640957
0.64096
0.640963
0.640963
0.640966
0.640969
0.640972
0.640975
0.640975
0.640978
0.640981
0.640985
0.640988
0.640988
0.640991
0.640994
0.640997
0.641
0.641
0.641003
0.641006
0.641009
0.641012
0.641012
0.641015
0.641018
0.641021
0.641024
0.641024
0.641028
0.641031
0.641034
0.641037
0.641037
0.64104
0.641043
0.641046
0.641049
0.641049
0.641052
0.641056
0.641059
0.641062
0.641062
0.641065
0.641068
0.641071
0.641074
0.641074
0.641078
0.641081
0.641084
0.641087
0.641087
0.64109
0.641093
0.641097
0.6411
0.6411
0.641103
0.641106
0.641109
0.641112
0.641112
0.641116
0.641119
0.641122
0.641125
0.641125
0.641128
0.641132
0.641135
0.641138
0.641138
0.641141
0.641145
0.641148
0.641151
0.641151
0.641154
0.641157
0.641161
0.641164
0.641164
0.641167
0.64117
0.641174
0.641177
0.641177
0.64118
0.641183
0.641187
0.64119
0.64119
0.641193
0.641197
0.6412
0.641203
0.641203
0.641206
0.64121
0.641213
0.641216
0.641216
0.64122
0.641223
0.641226
0.64123
0.64123
0.641233
0.641236
0.64124
0.641243
0.641243
0.641246
0.64125
0.641253
0.641256
0.641256
0.64126
0.641263
0.641266
0.64127
0.64127
0.641273
0.641276
0.64128
0.641283
0.641283
0.641286
0.64129
0.641293
0.641297
0.641297
0.6413
0.641303
0.641307
0.64131
0.64131
0.641314
0.641317
0.64132
0.641324
0.641324
0.641327
0.641331
0.641334
0.641337
0.641337
0.641341
0.641344
0.641348
0.641351
0.641351
0.641355
0.641358
0.641361
0.641365
0.641365
0.641368
0.641372
0.641375
0.641379
0.641379
0.641382
0.641386
0.641389
0.641393
0.641393
0.641396
0.6414
0.641403
0.641407
0.641407
0.64141
0.641414
0.641417
0.641421
0.641421
0.641424
0.641428
0.641431
0.641435
0.641435
0.641438
0.641442
0.641445
0.641449
0.641449
0.641452
0.641456
0.641459
0.641463
0.641463
0.641466
0.64147
0.641474
0.641477
0.641477
0.641481
0.641484
0.641488
0.641491
0.641491
0.641495
0.641499
0.641502
0.641506
0.641506
0.641509
0.641513
0.641517
0.64152
0.64152
0.641524
0.641527
0.641531
0.641535
0.641535
0.641538
0.641542
0.641545
0.641549
0.641549
0.641553
0.641556
0.64156
0.641564
0.641564
0.641567
0.641571
0.641575
0.641578
0.641578
0.641582
0.641586
0.641589
0.641593
0.641593
0.641597
0.6416
0.641604
0.641608
0.641608
0.641611
0.641615
0.641619
0.641622
0.641622
0.641626
0.64163
0.641634
0.641637
0.641637
0.641641
0.641645
0.641648
0.641652
0.641652
0.641656
0.64166
0.641663
0.641667
0.641667
0.641671
0.641675
0.641678
0.641682
0.641682
0.641686
0.64169
0.641693
0.641697
0.641697
0.641701
0.641705
0.641709
0.641712
0.641712
0.641716
0.64172
0.641724
0.641727
0.641727
0.641731
0.641735
0.641739
0.641743
0.641743
0.641746
0.64175
0.641754
0.641758
0.641758
0.641762
0.641766
0.641769
0.641773
0.641773
0.641777
0.641781
0.641785
0.641789
0.641789
0.641793
0.641796
0.6418
0.641804
0.641804
0.641808
0.641812
0.641816
0.64182
0.64182
0.641824
0.641827
0.641831
0.641835
0.641835
0.641839
0.641843
0.641847
0.641851
0.641851
0.641855
0.641859
0.641863
0.641866
0.641866
0.64187
0.641874
0.641878
0.641882
0.641882
0.641886
0.64189
0.641894
0.641898
0.641898
0.641902
0.641906
0.64191
0.641914
0.641914
0.641918
0.641922
0.641926
0.64193
0.64193
0.641934
0.641938
0.641942
0.641946
0.641946
0.64195
0.641954
0.641958
0.641962
0.641962
0.641966
0.64197
0.641974
0.641978
0.641978
0.641982
0.641986
0.64199
0.641994
0.641994
0.641998
0.642002
0.642006
0.64201
0.64201
0.642014
0.642018
0.642022
0.642026
0.642026
0.64203
0.642034
0.642038
0.642042
0.642042
0.642047
0.642051
0.642055
0.642059
0.642059
0.642063
0.642067
0.642071
0.642075
0.642075
0.642079
0.642083
0.642088
0.642092
0.642092
0.642096
0.6421
0.642104
0.642108
0.642108
0.642112
0.642116
0.642121
0.642125
0.642125
0.642129
0.642133
0.642137
0.642141
0.642141
0.642145
0.64215
0.642154
0.642158
0.642158
0.642162
0.642166
0.642171
0.642175
0.642175
0.642179
0.642183
0.642187
0.642191
0.642191
0.642196
0.6422
0.642204
0.642208
0.642208
0.642213
0.642217
0.642221
0.642225
0.642225
0.642229
0.642234
0.642238
0.642242
0.642242
0.642246
0.642251
0.642255
0.642259
0.642259
0.642263
0.642268
0.642272
0.642276
0.642276
0.64228
0.642285
0.642289
0.642293
0.642293
0.642298
0.642302
0.642306
0.642311
0.642311
0.642315
0.642319
0.642323
0.642328
0.642328
0.642332
0.642336
0.642341
0.642345
0.642345
0.642349
0.642354
0.642358
0.642362
0.642362
0.642367
0.642371
0.642375
0.64238
0.64238
0.642384
0.642388
0.642393
0.642397
0.642397
0.642402
0.642406
0.64241
0.642415
0.642415
0.642419
0.642424
0.642428
0.642432
0.642432
0.642437
0.642441
0.642446
0.64245
0.64245
0.642454
0.642459
0.642463
0.642468
0.642468
0.642472
0.642476
0.642481
0.642485
0.642485
0.64249
0.642494
0.642499
0.642503
0.642503
0.642508
0.642512
0.642516
0.642521
0.642521
0.642525
0.64253
0.642534
0.642539
0.642539
0.642543
0.642548
0.642552
0.642557
0.642557
0.642561
0.642566
0.64257
0.642575
0.642575
0.642579
0.642584
0.642588
0.642593
0.642593
0.642597
0.642602
0.642607
0.642611
0.642611
0.642616
0.64262
0.642625
0.642629
0.642629
0.642634
0.642638
0.642643
0.642647
0.642647
0.642652
0.642657
0.642661
0.642666
0.642666
0.64267
0.642675
0.64268
0.642684
0.642684
0.642689
0.642693
0.642698
0.642703
0.642703
0.642707
0.642712
0.642716
0.642721
0.642721
0.642726
0.64273
0.642735
0.64274
0.64274
0.642744
0.642749
0.642753
0.642758
0.642758
0.642763
0.642767
0.642772
0.642777
0.642777
0.642781
0.642786
0.642791
0.642795
0.642795
0.6428
0.642805
0.642809
0.642814
0.642814
0.642819
0.642824
0.642828
0.642833
0.642833
0.642838
0.642842
0.642847
0.642852
0.642852
0.642857
0.642861
0.642866
0.642871
0.642871
0.642875
0.64288
0.642885
0.64289
0.64289
0.642894
0.642899
0.642904
0.642909
0.642909
0.642914
0.642918
0.642923
0.642928
0.642928
0.642933
0.642937
0.642942
0.642947
0.642947
0.642952
0.642957
0.642961
0.642966
0.642966
0.642971
0.642976
0.642981
0.642985
0.642985
0.64299
0.642995
0.643
0.643005
0.643005
0.64301
0.643014
0.643019
0.643024
0.643024
0.643029
0.643034
0.643039
0.643044
0.643044
0.643048
0.643053
0.643058
0.643063
0.643063
0.643068
0.643073
0.643078
0.643083
0.643083
0.643087
0.643092
0.643097
0.643102
0.643102
0.643107
0.643112
0.643117
0.643122
0.643122
0.643127
0.643132
0.643137
0.643142
0.643142
0.643146
0.643151
0.643156
0.643161
0.643161
0.643166
0.643171
0.643176
0.643181
0.643181
0.643186
0.643191
0.643196
0.643201
0.643201
0.643206
0.643211
0.643216
0.643221
0.643221
0.643226
0.643231
0.643236
0.643241
0.643241
0.643246
0.643251
0.643256
0.643261
0.643261
0.643266
0.643271
0.643276
0.643281
0.643281
0.643286
0.643291
0.643296
0.643301
0.643301
0.643306
0.643311
0.643316
0.643321
0.643321
0.643327
0.643332
0.643337
0.643342
0.643342
0.643347
0.643352
0.643357
0.643362
0.643362
0.643367
0.643372
0.643377
0.643382
0.643382
0.643388
0.643393
0.643398
0.643403
0.643403
0.643408
0.643413
0.643418
0.643423
0.643423
0.643429
0.643434
0.643439
0.643444
0.643444
0.643449
0.643454
0.643459
0.643465
0.643465
0.64347
0.643475
0.64348
0.643485
0.643485
0.643491
0.643496
0.643501
0.643506
0.643506
0.643511
0.643516
0.643522
0.643527
0.643527
0.643532
0.643537
0.643542
0.643548
0.643548
0.643553
0.643558
0.643563
0.643569
0.643569
0.643574
0.643579
0.643584
0.64359
0.64359
0.643595
0.6436
0.643605
0.643611
0.643611
0.643616
0.643621
0.643626
0.643632
0.643632
0.643637
0.643642
0.643648
0.643653
0.643653
0.643658
0.643663
0.643669
0.643674
0.643674
0.643679
0.643685
0.64369
0.643695
0.643695
0.643701
0.643706
0.643711
0.643717
0.643717
0.643722
0.643727
0.643733
0.643738
0.643738
0.643743
0.643749
0.643754
0.643759
0.643759
0.643765
0.64377
0.643775
0.643781
0.643781
0.643786
0.643792
0.643797
0.643802
0.643802
0.643808
0.643813
0.643819
0.643824
0.643824
0.643829
0.643835
0.64384
0.643846
0.643846
0.643851
0.643856
0.643862
0.643867
0.643867
0.643873
0.643878
0.643884
0.643889
0.643889
0.643895
0.6439
0.643905
0.643911
0.643911
0.643916
0.643922
0.643927
0.643933
0.643933
0.643938
0.643944
0.643949
0.643955
0.643955
0.64396
0.643966
0.643971
0.643977
0.643977
0.643982
0.643988
0.643993
0.643999
0.643999
0.644004
0.64401
0.644015
0.644021
0.644021
0.644026
0.644032
0.644037
0.644043
0.644043
0.644049
0.644054
0.64406
0.644065
0.644065
0.644071
0.644076
0.644082
0.644088
0.644088
0.644093
0.644099
0.644104
0.64411
0.64411
0.644116
0.644121
0.644127
0.644132
0.644132
0.644138
0.644144
0.644149
0.644155
0.644155
0.64416
0.644166
0.644172
0.644177
0.644177
0.644183
0.644189
0.644194
0.6442
0.6442
0.644205
0.644211
0.644217
0.644222
0.644222
0.644228
0.644234
0.644239
0.644245
0.644245
0.644251
0.644257
0.644262
0.644268
0.644268
0.644274
0.644279
0.644285
0.644291
0.644291
0.644296
0.644302
0.644308
0.644314
0.644314
0.644319
0.644325
0.644331
0.644336
0.644336
0.644342
0.644348
0.644354
0.644359
0.644359
0.644365
0.644371
0.644377
0.644383
0.644383
0.644388
0.644394
0.6444
0.644406
0.644406
0.644411
0.644417
0.644423
0.644429
0.644429
0.644435
0.64444
0.644446
0.644452
0.644452
0.644458
0.644464
0.644469
0.644475
0.644475
0.644481
0.644487
0.644493
0.644499
0.644499
0.644504
0.64451
0.644516
0.644522
0.644522
0.644528
0.644534
0.64454
0.644545
0.644545
0.644551
0.644557
0.644563
0.644569
0.644569
0.644575
0.644581
0.644587
0.644592
0.644592
0.644598
0.644604
0.64461
0.644616
0.644616
0.644622
0.644628
0.644634
0.64464
0.64464
0.644646
0.644652
0.644658
0.644663
0.644663
0.644669
0.644675
0.644681
0.644687
0.644687
0.644693
0.644699
0.644705
0.644711
0.644711
0.644717
0.644723
0.644729
0.644735
0.644735
0.644741
0.644747
0.644753
0.644759
0.644759
0.644765
0.644771
0.644777
0.644783
0.644783
0.644789
0.644795
0.644801
0.644807
0.644807
0.644813
0.644819
0.644825
0.644831
0.644831
0.644837
0.644843
0.644849
0.644855
0.644855
0.644861
0.644868
0.644874
0.64488
0.64488
0.644886
0.644892
0.644898
0.644904
0.644904
0.64491
0.644916
0.644922
0.644928
0.644928
0.644934
0.644941
0.644947
0.644953
0.644953
0.644959
0.644965
0.644971
0.644977
0.644977
0.644983
0.64499
0.644996
0.645002
0.645002
0.645008
0.645014
0.64502
0.645026
0.645026
0.645033
0.645039
0.645045
0.645051
0.645051
0.645057
0.645063
0.64507
0.645076
0.645076
0.645082
0.645088
0.645094
0.645101
0.645101
0.645107
0.645113
0.645119
0.645125
0.645125
0.645132
0.645138
0.645144
0.64515
0.64515
0.645157
0.645163
0.645169
0.645175
0.645175
0.645182
0.645188
0.645194
0.6452
0.6452
0.645207
0.645213
0.645219
0.645225
0.645225
0.645232
0.645238
0.645244
0.645251
0.645251
0.645257
0.645263
0.645269
0.645276
0.645276
0.645282
0.645288
0.645295
0.645301
0.645301
0.645307
0.645314
0.64532
0.645326
0.645326
0.645333
0.645339
0.645345
0.645352
0.645352
0.645358
0.645364
0.645371
0.645377
0.645377
0.645383
0.64539
0.645396
0.645403
0.645403
0.645409
0.645415
0.645422
0.645428
0.645428
0.645435
0.645441
0.645447
0.645454
0.645454
0.64546
0.645467
0.645473
0.645479
0.645479
0.645486
0.645492
0.645499
0.645505
0.645505
0.645512
0.645518
0.645524
0.645531
0.645531
0.645537
0.645544
0.64555
0.645557
0.645557
0.645563
0.64557
0.645576
0.645583
0.645583
0.645589
0.645596
0.645602
0.645609
0.645609
0.645615
0.645622
0.645628
0.645635
0.645635
0.645641
0.645648
0.645654
0.645661
0.645661
0.645667
0.645674
0.64568
0.645687
0.645687
0.645693
0.6457
0.645707
0.645713
0.645713
0.64572
0.645726
0.645733
0.645739
0.645739
0.645746
0.645752
0.645759
0.645766
0.645766
0.645772
0.645779
0.645785
0.645792
0.645792
0.645799
0.645805
0.645812
0.645818
0.645818
0.645825
0.645832
0.645838
0.645845
0.645845
0.645852
0.645858
0.645865
0.645871
0.645871
0.645878
0.645885
0.645891
0.645898
0.645898
0.645905
0.645911
0.645918
0.645925
0.645925
0.645931
0.645938
0.645945
0.645951
0.645951
0.645958
0.645965
0.645972
0.645978
0.645978
0.645985
0.645992
0.645998
0.646005
0.646005
0.646012
0.646019
0.646025
0.646032
0.646032
0.646039
0.646045
0.646052
0.646059
0.646059
0.646066
0.646073
0.646079
0.646086
0.646086
0.646093
0.6461
0.646106
0.646113
0.646113
0.64612
0.646127
0.646133
0.64614
0.64614
0.646147
0.646154
0.646161
0.646167
0.646167
0.646174
0.646181
0.646188
0.646195
0.646195
0.646202
0.646208
0.646215
0.646222
0.646222
0.646229
0.646236
0.646243
0.646249
0.646249
0.646256
0.646263
0.64627
0.646277
0.646277
0.646284
0.646291
0.646297
0.646304
0.646304
0.646311
0.646318
0.646325
0.646332
0.646332
0.646339
0.646346
0.646353
0.64636
0.64636
0.646367
0.646373
0.64638
0.646387
0.646387
0.646394
0.646401
0.646408
0.646415
0.646415
0.646422
0.646429
0.646436
0.646443
0.646443
0.64645
0.646457
0.646464
0.646471
0.646471
0.646478
0.646485
0.646492
0.646499
0.646499
0.646506
0.646513
0.64652
0.646527
0.646527
0.646534
0.646541
0.646548
0.646555
0.646555
0.646562
0.646569
0.646576
0.646583
0.646583
0.64659
0.646597
0.646604
0.646611
0.646611
0.646618
0.646625
0.646632
0.646639
0.646639
0.646646
0.646653
0.64666
0.646667
0.646667
0.646675
0.646682
0.646689
0.646696
0.646696
0.646703
0.64671
0.646717
0.646724
0.646724
0.646731
0.646738
0.646746
0.646753
0.646753
0.64676
0.646767
0.646774
0.646781
0.646781
0.646788
0.646795
0.646803
0.64681
0.64681
0.646817
0.646824
0.646831
0.646838
0.646838
0.646846
0.646853
0.64686
0.646867
0.646867
0.646874
0.646882
0.646889
0.646896
0.646896
0.646903
0.64691
0.646918
0.646925
0.646925
0.646932
0.646939
0.646946
0.646954
0.646954
0.646961
0.646968
0.646975
0.646983
0.646983
0.64699
0.646997
0.647004
0.647012
0.647012
0.647019
0.647026
0.647033
0.647041
0.647041
0.647048
0.647055
0.647062
0.64707
0.64707
0.647077
0.647084
0.647092
0.647099
0.647099
0.647106
0.647114
0.647121
0.647128
0.647128
0.647136
0.647143
0.64715
0.647158
0.647158
0.647165
0.647172
0.64718
0.647187
0.647187
0.647194
0.647202
0.647209
0.647216
0.647216
0.647224
0.647231
0.647238
0.647246
0.647246
0.647253
0.647261
0.647268
0.647275
0.647275
0.647283
0.64729
0.647298
0.647305
0.647305
0.647312
0.64732
0.647327
0.647335
0.647335
0.647342
0.64735
0.647357
0.647364
0.647364
0.647372
0.647379
0.647387
0.647394
0.647394
0.647402
0.647409
0.647417
0.647424
0.647424
0.647432
0.647439
0.647447
0.647454
0.647454
0.647462
0.647469
0.647476
0.647484
0.647484
0.647491
0.647499
0.647506
0.647514
0.647514
0.647522
0.647529
0.647537
0.647544
0.647544
0.647552
0.647559
0.647567
0.647574
0.647574
0.647582
0.647589
0.647597
0.647605
0.647605
0.647612
0.64762
0.647627
0.647635
0.647635
0.647642
0.64765
0.647658
0.647665
0.647665
0.647673
0.64768
0.647688
0.647696
0.647696
0.647703
0.647711
0.647718
0.647726
0.647726
0.647734
0.647741
0.647749
0.647757
0.647757
0.647764
0.647772
0.64778
0.647787
0.647787
0.647795
0.647803
0.64781
0.647818
0.647818
0.647826
0.647833
0.647841
0.647849
0.647849
0.647856
0.647864
0.647872
0.647879
0.647879
0.647887
0.647895
0.647902
0.64791
0.64791
0.647918
0.647926
0.647933
0.647941
0.647941
0.647949
0.647957
0.647964
0.647972
0.647972
0.64798
0.647988
0.647995
0.648003
0.648003
0.648011
0.648019
0.648026
0.648034
0.648034
0.648042
0.64805
0.648058
0.648065
0.648065
0.648073
0.648081
0.648089
0.648097
0.648097
0.648104
0.648112
0.64812
0.648128
0.648128
0.648136
0.648143
0.648151
0.648159
0.648159
0.648167
0.648175
0.648183
0.648191
0.648191
0.648198
0.648206
0.648214
0.648222
0.648222
0.64823
0.648238
0.648246
0.648254
0.648254
0.648261
0.648269
0.648277
0.648285
0.648285
0.648293
0.648301
0.648309
0.648317
0.648317
0.648325
0.648333
0.64834
0.648348
0.648348
0.648356
0.648364
0.648372
0.64838
0.64838
0.648388
0.648396
0.648404
0.648412
0.648412
0.64842
0.648428
0.648436
0.648444
0.648444
0.648452
0.64846
0.648468
0.648476
0.648476
0.648484
0.648492
0.6485
0.648508
0.648508
0.648516
0.648524
0.648532
0.64854
0.64854
0.648548
0.648556
0.648564
0.648572
0.648572
0.64858
0.648588
0.648596
0.648604
0.648604
0.648612
0.64862
0.648629
0.648637
0.648637
0.648645
0.648653
0.648661
0.648669
0.648669
0.648677
0.648685
0.648693
0.648701
0.648701
0.648709
0.648717
0.648726
0.648734
0.648734
0.648742
0.64875
0.648758
0.648766
0.648766
0.648774
0.648783
0.648791
0.648799
0.648799
0.648807
0.648815
0.648823
0.648831
0.648831
0.64884
0.648848
0.648856
0.648864
0.648864
0.648872
0.648881
0.648889
0.648897
0.648897
0.648905
0.648913
0.648922
0.64893
0.64893
0.648938
0.648946
0.648954
0.648963
0.648963
0.648971
0.648979
0.648987
0.648996
0.648996
0.649004
0.649012
0.64902
0.649029
0.649029
0.649037
0.649045
0.649053
0.649062
0.649062
0.64907
0.649078
0.649087
0.649095
0.649095
0.649103
0.649111
0.64912
0.649128
0.649128
0.649136
0.649145
0.649153
0.649161
0.649161
0.64917
0.649178
0.649186
0.649195
0.649195
0.649203
0.649211
0.64922
0.649228
0.649228
0.649236
0.649245
0.649253
0.649261
0.649261
0.64927
0.649278
0.649287
0.649295
0.649295
0.649303
0.649312
0.64932
0.649329
0.649329
0.649337
0.649345
0.649354
0.649362
0.649362
0.649371
0.649379
0.649387
0.649396
0.649396
0.649404
0.649413
0.649421
0.64943
0.64943
0.649438
0.649447
0.649455
0.649464
0.649464
0.649472
0.64948
0.649489
0.649497
0.649497
0.649506
0.649514
0.649523
0.649531
0.649531
0.64954
0.649548
0.649557
0.649565
0.649565
0.649574
0.649582
0.649591
0.6496
0.6496
0.649608
0.649617
0.649625
0.649634
0.649634
0.649642
0.649651
0.649659
0.649668
0.649668
0.649676
0.649685
0.649694
0.649702
0.649702
0.649711
0.649719
0.649728
0.649737
0.649737
0.649745
0.649754
0.649762
0.649771
0.649771
0.64978
0.649788
0.649797
0.649805
0.649805
0.649814
0.649823
0.649831
0.64984
0.64984
0.649849
0.649857
0.649866
0.649875
0.649875
0.649883
0.649892
0.6499
0.649909
0.649909
0.649918
0.649926
0.649935
0.649944
0.649944
0.649953
0.649961
0.64997
0.649979
0.649979
0.649987
0.649996
0.650005
0.650014
0.650014
0.650022
0.650031
0.65004
0.650048
0.650048
0.650057
0.650066
0.650075
0.650083
0.650083
0.650092
0.650101
0.65011
0.650118
0.650118
0.650127
0.650136
0.650145
0.650154
0.650154
0.650162
0.650171
0.65018
0.650189
0.650189
0.650198
0.650206
0.650215
0.650224
0.650224
0.650233
0.650242
0.65025
0.650259
0.650259
0.650268
0.650277
0.650286
0.650295
0.650295
0.650303
0.650312
0.650321
0.65033
0.65033
0.650339
0.650348
0.650357
0.650366
0.650366
0.650374
0.650383
0.650392
0.650401
0.650401
0.65041
0.650419
0.650428
0.650437
0.650437
0.650446
0.650455
0.650463
0.650472
0.650472
0.650481
0.65049
0.650499
0.650508
0.650508
0.650517
0.650526
0.650535
0.650544
0.650544
0.650553
0.650562
0.650571
0.65058
0.65058
0.650589
0.650598
0.650607
0.650616
0.650616
0.650625
0.650634
0.650643
0.650652
0.650652
0.650661
0.65067
0.650679
0.650688
0.650688
0.650697
0.650706
0.650715
0.650724
0.650724
0.650733
0.650742
0.650751
0.65076
0.65076
0.650769
0.650778
0.650787
0.650797
0.650797
0.650806
0.650815
0.650824
0.650833
0.650833
0.650842
0.650851
0.65086
0.650869
0.650869
0.650878
0.650887
0.650897
0.650906
0.650906
0.650915
0.650924
0.650933
0.650942
0.650942
0.650951
0.650961
0.65097
0.650979
0.650979
0.650988
0.650997
0.651006
0.651015
0.651015
0.651025
0.651034
0.651043
0.651052
0.651052
0.651061
0.651071
0.65108
0.651089
0.651089
0.651098
0.651107
0.651117
0.651126
0.651126
0.651135
0.651144
0.651154
0.651163
0.651163
0.651172
0.651181
0.65119
0.6512
0.6512
0.651209
0.651218
0.651228
0.651237
0.651237
0.651246
0.651255
0.651265
0.651274
0.651274
0.651283
0.651292
0.651302
0.651311
0.651311
0.65132
0.65133
0.651339
0.651348
0.651348
0.651358
0.651367
0.651376
0.651386
0.651386
0.651395
0.651404
0.651414
0.651423
0.651423
0.651432
0.651442
0.651451
0.65146
0.65146
0.65147
0.651479
0.651489
0.651498
0.651498
0.651507
0.651517
0.651526
0.651536
0.651536
0.651545
0.651554
0.651564
0.651573
0.651573
0.651583
0.651592
0.651601
0.651611
0.651611
0.65162
0.65163
0.651639
0.651649
0.651649
0.651658
0.651668
0.651677
0.651687
0.651687
0.651696
0.651705
0.651715
0.651724
0.651724
0.651734
0.651743
0.651753
0.651762
0.651762
0.651772
0.651781
0.651791
0.6518
0.6518
0.65181
0.65182
0.651829
0.651839
0.651839
0.651848
0.651858
0.651867
0.651877
0.651877
0.651886
0.651896
0.651905
0.651915
0.651915
0.651925
0.651934
0.651944
0.651953
0.651953
0.651963
0.651972
0.651982
0.651992
0.651992
0.652001
0.652011
0.65202
0.65203