<?xml version="1.0"?>
<VTKFile type="UnstructuredGrid" version="0.1" byte_order="LittleEndian">
<UnstructuredGrid>
<Piece NumberOfPoints="5000" NumberOfCells="4000">
<PointData Scalars="Reaction 0">
<DataArray type="Float32" Name="Reaction 0" format="ascii">
0.683389
0.683389
0.683389
0.683389
0.683389
0.683389
0.683389
0.683389
0.683389
0.683389
0.683389
0.683389
0.68339
0.68339
0.68339
0.68339
0.68339
0.68339
0.68339
0.68339
0.68339
0.68339
0.68339
0.68339
0.68339
0.68339
0.68339
0.683391
0.683391
0.683391
0.683391
0.683391
0.683391
0.683391
0.683391
0.683391
0.683391
0.683392
0.683392
0.683392
0.683392
0.683392
0.683392
0.683392
0.683393
0.683393
0.683393
0.683393
0.683393
0.683393
0.683393
0.683394
0.683394
0.683394
0.683394
0.683394
0.683395
0.683395
0.683395
0.683395
0.683395
0.683396
0.683396
0.683396
0.683396
0.683396
0.683397
0.683397
0.683397
0.683397
0.683397
0.683398
0.683398
0.683398
0.683399
0.683399
0.683399
0.683399
0.6834
0.6834
0.6834
0.6834
0.683401
0.683401
0.683401
0.683401
0.683402
0.683402
0.683402
0.683403
0.683403
0.683403
0.683404
0.683404
0.683404
0.683404
0.683405
0.683405
0.683406
0.683406
0.683406
0.683406
0.683407
0.683407
0.683408
0.683408
0.683408
0.683409
0.683409
0.683409
0.683409
0.68341
0.68341
0.683411
0.683411
0.683411
0.683412
0.683412
0.683413
0.683413
0.683413
0.683414
0.683414
0.683415
0.683415
0.683415
0.683416
0.683416
0.683417
0.683418
0.683418
0.683418
0.683419
0.683419
0.68342
0.68342
0.68342
0.683421
0.683421
0.683422
0.683422
0.683423
0.683423
0.683424
0.683424
0.683424
0.683425
0.683426
0.683426
0.683427
0.683427
0.683427
0.683428
0.683429
0.683429
0.683429
0.68343
0.683431
0.683431
0.683432
0.683432
0.683433
0.683433
0.683434
0.683435
0.683435
0.683435
0.683436
0.683437
0.683438
0.683438
0.683438
0.683439
0.68344
0.68344
0.68344
0.683441
0.683442
0.683443
0.683443
0.683443
0.683444
0.683445
0.683446
0.683446
0.683446
0.683447
0.683448
0.683449
0.68345
0.68345
0.68345
0.683451
0.683452
0.683453
0.683453
0.683454
0.683454
0.683455
0.683456
0.683456
0.683457
0.683458
0.683459
0.683459
0.683459
0.68346
0.683461
0.683462
0.683463
0.683463
0.683464
0.683465
0.683466
0.683467
0.683467
0.683467
0.683468
0.683469
0.68347
0.68347
0.683471
0.683472
0.683473
0.683474
0.683474
0.683475
0.683476
0.683477
0.683478
0.683478
0.683479
0.68348
0.683481
0.683482
0.683482
0.683483
0.683484
0.683485
0.683486
0.683486
0.683487
0.683488
0.683489
0.68349
0.68349
0.683491
0.683492
0.683493
0.683494
0.683494
0.683495
0.683496
0.683497
0.683498
0.683498
0.683499
0.6835
0.683501
0.683502
0.683502
0.683503
0.683504
0.683506
0.683507
0.683507
0.683508
0.683509
0.68351
0.683511
0.683511
0.683512
0.683513
0.683515
0.683516
0.683516
0.683517
0.683518
0.683519
0.68352
0.68352
0.683521
0.683523
0.683524
0.683525
0.683525
0.683526
0.683527
0.683529
0.68353
0.68353
0.683531
0.683532
0.683534
0.683535
0.683535
0.683536
0.683537
0.683538
0.68354
0.68354
0.683541
0.683542
0.683544
0.683545
0.683545
0.683546
0.683547
0.683549
0.68355
0.68355
0.683551
0.683553
0.683554
0.683555
0.683555
0.683556
0.683558
0.683559
0.68356
0.68356
0.683562
0.683563
0.683564
0.683566
0.683566
0.683567
0.683569
0.68357
0.683571
0.683571
0.683573
0.683574
0.683575
0.683577
0.683577
0.683578
0.68358
0.683581
0.683583
0.683583
0.683584
0.683585
0.683587
0.683588
0.683588
0.68359
0.683591
0.683593
0.683594
0.683594
0.683596
0.683597
0.683599
0.6836
0.6836
0.683601
0.683603
0.683604
0.683606
0.683606
0.683607
0.683609
0.683611
0.683612
0.683612
0.683614
0.683615
0.683617
0.683618
0.683618
0.68362
0.683621
0.683623
0.683624
0.683624
0.683626
0.683628
0.683629
0.683631
0.683631
0.683632
0.683634
0.683636
0.683637
0.683637
0.683639
0.68364
0.683642
0.683644
0.683644
0.683645
0.683647
0.683649
0.68365
0.68365
0.683652
0.683654
0.683655
0.683657
0.683657
0.683659
0.68366
0.683662
0.683664
0.683664
0.683665
0.683667
0.683669
0.68367
0.68367
0.683672
0.683674
0.683676
0.683677
0.683677
0.683679
0.683681
0.683683
0.683684
0.683684
0.683686
0.683688
0.68369
0.683691
0.683691
0.683693
0.683695
0.683697
0.683699
0.683699
0.6837
0.683702
0.683704
0.683706
0.683706
0.683708
0.683709
0.683711
0.683713
0.683713
0.683715
0.683717
0.683719
0.683721
0.683721
0.683722
0.683724
0.683726
0.683728
0.683728
0.68373
0.683732
0.683734
0.683736
0.683736
0.683737
0.683739
0.683741
0.683743
0.683743
0.683745
0.683747
0.683749
0.683751
0.683751
0.683753
0.683755
0.683757
0.683759
0.683759
0.683761
0.683763
0.683765
0.683767
0.683767
0.683769
0.683771
0.683773
0.683775
0.683775
0.683777
0.683779
0.683781
0.683783
0.683783
0.683785
0.683787
0.683789
0.683791
0.683791
0.683793
0.683795
0.683797
0.683799
0.683799
0.683801
0.683803
0.683805
0.683808
0.683808
0.68381
0.683812
0.683814
0.683816
0.683816
0.683818
0.68382
0.683822
0.683824
0.683824
0.683827
0.683829
0.683831
0.683833
0.683833
0.683835
0.683837
0.68384
0.683842
0.683842
0.683844
0.683846
0.683848
0.68385
0.68385
0.683853
0.683855
0.683857
0.683859
0.683859
0.683862
0.683864
0.683866
0.683868
0.683868
0.683871
0.683873
0.683875
0.683877
0.683877
0.68388
0.683882
0.683884
0.683886
0.683886
0.683889
0.683891
0.683893
0.683896
0.683896
0.683898
0.6839
0.683902
0.683905
0.683905
0.683907
0.683909
0.683912
0.683914
0.683914
0.683917
0.683919
0.683921
0.683924
0.683924
0.683926
0.683928
0.683931
0.683933
0.683933
0.683935
0.683938
0.68394
0.683943
0.683943
0.683945
0.683948
0.68395
0.683952
0.683952
0.683955
0.683957
0.68396
0.683962
0.683962
0.683965
0.683967
0.68397
0.683972
0.683972
0.683974
0.683977
0.683979
0.683982
0.683982
0.683984
0.683987
0.683989
0.683992
0.683992
0.683994
0.683997
0.684
0.684002
0.684002
0.684005
0.684007
0.68401
0.684012
0.684012
0.684015
0.684017
0.68402
0.684023
0.684023
0.684025
0.684028
0.68403
0.684033
0.684033
0.684036
0.684038
0.684041
0.684043
0.684043
0.684046
0.684049
0.684051
0.684054
0.684054
0.684057
0.684059
0.684062
0.684065
0.684065
0.684067
0.68407
0.684073
0.684075
0.684075
0.684078
0.684081
0.684083
0.684086
0.684086
0.684089
0.684091
0.684094
0.684097
0.684097
0.6841
0.684102
0.684105
0.684108
0.684108
0.684111
0.684113
0.684116
0.684119
0.684119
0.684122
0.684124
0.684127
0.68413
0.68413
0.684133
0.684136
0.684138
0.684141
0.684141
0.684144
0.684147
0.68415
0.684152
0.684152
0.684155
0.684158
0.684161
0.684164
0.684164
0.684167
0.68417
0.684172
0.684175
0.684175
0.684178
0.684181
0.684184
0.684187
0.684187
0.68419
0.684193
0.684196
0.684198
0.684198
0.684201
0.684204
0.684207
0.68421
0.68421
0.684213
0.684216
0.684219
0.684222
0.684222
0.684225
0.684228
0.684231
0.684234
0.684234
0.684237
0.68424
0.684243
0.684246
0.684246
0.684249
0.684252
0.684255
0.684258
0.684258
0.684261
0.684264
0.684267
0.68427
0.68427
0.684273
0.684276
0.684279
0.684282
0.684282
0.684285
0.684288
0.684292
0.684295
0.684295
0.684298
0.684301
0.684304
0.684307
0.684307
0.68431
0.684313
0.684316
0.684319
0.684319
0.684323
0.684326
0.684329
0.684332
0.684332
0.684335
0.684338
0.684342
0.684345
0.684345
0.684348
0.684351
0.684354
0.684357
0.684357
0.684361
0.684364
0.684367
0.68437
0.68437
0.684373
0.684377
0.68438
0.684383
0.684383
0.684386
0.68439
0.684393
0.684396
0.684396
0.684399
0.684403
0.684406
0.684409
0.684409
0.684413
0.684416
0.684419
0.684422
0.684422
0.684426
0.684429
0.684432
0.684436
0.684436
0.684439
0.684442
0.684446
0.684449
0.684449
0.684452
0.684456
0.684459
0.684462
0.684462
0.684466
0.684469
0.684473
0.684476
0.684476
0.684479
0.684483
0.684486
0.684489
0.684489
0.684493
0.684496
0.6845
0.684503
0.684503
0.684507
0.68451
0.684513
0.684517
0.684517
0.68452
0.684524
0.684527
0.684531
0.684531
0.684534
0.684538
0.684541
0.684545
0.684545
0.684548
0.684552
0.684555
0.684559
0.684559
0.684562
0.684566
0.684569
0.684573
0.684573
0.684576
0.68458
0.684583
0.684587
0.684587
0.684591
0.684594
0.684598
0.684601
0.684601
0.684605
0.684608
0.684612
0.684616
0.684616
0.684619
0.684623
0.684626
0.68463
0.68463
0.684634
0.684637
0.684641
0.684645
0.684645
0.684648
0.684652
0.684656
0.684659
0.684659
0.684663
0.684667
0.68467
0.684674
0.684674
0.684678
0.684681
0.684685
0.684689
0.684689
0.684692
0.684696
0.6847
0.684704
0.684704
0.684707
0.684711
0.684715
0.684719
0.684719
0.684722
0.684726
0.68473
0.684734
0.684734
0.684737
0.684741
0.684745
0.684749
0.684749
0.684753
0.684756
0.68476
0.684764
0.684764
0.684768
0.684772
0.684775
0.684779
0.684779
0.684783
0.684787
0.684791
0.684795
0.684795
0.684799
0.684802
0.684806
0.68481
0.68481
0.684814
0.684818
0.684822
0.684826
0.684826
0.68483
0.684833
0.684837
0.684841
0.684841
0.684845
0.684849
0.684853
0.684857
0.684857
0.684861
0.684865
0.684869
0.684873
0.684873
0.684877
0.684881
0.684885
0.684889
0.684889
0.684893
0.684897
0.684901
0.684905
0.684905
0.684909
0.684913
0.684917
0.684921
0.684921
0.684925
0.684929
0.684933
0.684937
0.684937
0.684941
0.684945
0.684949
0.684953
0.684953
0.684957
0.684961
0.684966
0.68497
0.68497
0.684974
0.684978
0.684982
0.684986
0.684986
0.68499
0.684994
0.684998
0.685003
0.685003
0.685007
0.685011
0.685015
0.685019
0.685019
0.685023
0.685027
0.685032
0.685036
0.685036
0.68504
0.685044
0.685048
0.685053
0.685053
0.685057
0.685061
0.685065
0.685069
0.685069
0.685074
0.685078
0.685082
0.685086
0.685086
0.685091
0.685095
0.685099
0.685103
0.685103
0.685108
0.685112
0.685116
0.68512
0.68512
0.685125
0.685129
0.685133
0.685138
0.685138
0.685142
0.685146
0.685151
0.685155
0.685155
0.685159
0.685164
0.685168
0.685172
0.685172
0.685177
0.685181
0.685185
0.68519
0.68519
0.685194
0.685199
0.685203
0.685207
0.685207
0.685212
0.685216
0.685221
0.685225
0.685225
0.685229
0.685234
0.685238
0.685243
0.685243
0.685247
0.685252
0.685256
0.68526
0.68526
0.685265
0.685269
0.685274
0.685278
0.685278
0.685283
0.685287
0.685292
0.685296
0.685296
0.685301
0.685305
0.68531
0.685314
0.685314
0.685319
0.685323
0.685328
0.685333
0.685333
0.685337
0.685342
0.685346
0.685351
0.685351
0.685355
0.68536
0.685365
0.685369
0.685369
0.685374
0.685378
0.685383
0.685388
0.685388
0.685392
0.685397
0.685401
0.685406
0.685406
0.685411
0.685415
0.68542
0.685425
0.685425
0.685429
0.685434
0.685439
0.685443
0.685443
0.685448
0.685453
0.685457
0.685462
0.685462
0.685467
0.685471
0.685476
0.685481
0.685481
0.685486
0.68549
0.685495
0.6855
0.6855
0.685505
0.685509
0.685514
0.685519
0.685519
0.685524
0.685528
0.685533
0.685538
0.685538
0.685543
0.685548
0.685552
0.685557
0.685557
0.685562
0.685567
0.685572
0.685576
0.685576
0.685581
0.685586
0.685591
0.685596
0.685596
0.685601
0.685605
0.68561
0.685615
0.685615
0.68562
0.685625
0.68563
0.685635
0.685635
0.68564
0.685645
0.685649
0.685654
0.685654
0.685659
0.685664
0.685669
0.685674
0.685674
0.685679
0.685684
0.685689
0.685694
0.685694
0.685699
0.685704
0.685709
0.685714
0.685714
0.685719
0.685724
0.685729
0.685734
0.685734
0.685739
0.685744
0.685749
0.685754
0.685754
0.685759
0.685764
0.685769
0.685774
0.685774
0.685779
0.685784
0.685789
0.685794
0.685794
0.685799
0.685804
0.685809
0.685815
0.685815
0.68582
0.685825
0.68583
0.685835
0.685835
0.68584
0.685845
0.68585
0.685855
0.685855
0.685861
0.685866
0.685871
0.685876
0.685876
0.685881
0.685886
0.685892
0.685897
0.685897
0.685902
0.685907
0.685912
0.685918
0.685918
0.685923
0.685928
0.685933
0.685938
0.685938
0.685944
0.685949
0.685954
0.685959
0.685959
0.685965
0.68597
0.685975
0.68598
0.68598
0.685986
0.685991
0.685996
0.686001
0.686001
0.686007
0.686012
0.686017
0.686023
0.686023
0.686028
0.686033
0.686039
0.686044
0.686044
0.686049
0.686055
0.68606
0.686065
0.686065
0.686071
0.686076
0.686081
0.686087
0.686087
0.686092
0.686098
0.686103
0.686108
0.686108
0.686114
0.686119
0.686125
0.68613
0.68613
0.686135
0.686141
0.686146
0.686152
0.686152
0.686157
0.686163
0.686168
0.686174
0.686174
0.686179
0.686184
0.68619
0.686195
0.686195
0.686201
0.686206
0.686212
0.686217
0.686217
0.686223
0.686229
0.686234
0.68624
0.68624
0.686245
0.686251
0.686256
0.686262
0.686262
0.686267
0.686273
0.686278
0.686284
0.686284
0.68629
0.686295
0.686301
0.686306
0.686306
0.686312
0.686318
0.686323
0.686329
0.686329
0.686334
0.68634
0.686346
0.686351
0.686351
0.686357
0.686363
0.686368
0.686374
0.686374
0.68638
0.686385
0.686391
0.686397
0.686397
0.686402
0.686408
0.686414
0.686419
0.686419
0.686425
0.686431
0.686437
0.686442
0.686442
0.686448
0.686454
0.68646
0.686465
0.686465
0.686471
0.686477
0.686483
0.686488
0.686488
0.686494
0.6865
0.686506
0.686512
0.686512
0.686517
0.686523
0.686529
0.686535
0.686535
0.686541
0.686546
0.686552
0.686558
0.686558
0.686564
0.68657
0.686576
0.686581
0.686581
0.686587
0.686593
0.686599
0.686605
0.686605
0.686611
0.686617
0.686623
0.686629
0.686629
0.686634
0.68664
0.686646
0.686652
0.686652
0.686658
0.686664
0.68667
0.686676
0.686676
0.686682
0.686688
0.686694
0.6867
0.6867
0.686706
0.686712
0.686718
0.686724
0.686724
0.68673
0.686736
0.686742
0.686748
0.686748
0.686754
0.68676
0.686766
0.686772
0.686772
0.686778
0.686784
0.68679
0.686796
0.686796
0.686802
0.686808
0.686814
0.68682
0.68682
0.686827
0.686833
0.686839
0.686845
0.686845
0.686851
0.686857
0.686863
0.686869
0.686869
0.686876
0.686882
0.686888
0.686894
0.686894
0.6869
0.686906
0.686912
0.686919
0.686919
0.686925
0.686931
0.686937
0.686943
0.686943
0.68695
0.686956
0.686962
0.686968
0.686968
0.686974
0.686981
0.686987
0.686993
0.686993
0.686999
0.687006
0.687012
0.687018
0.687018
0.687024
0.687031
0.687037
0.687043
0.687043
0.68705
0.687056
0.687062
0.687068
0.687068
0.687075
0.687081
0.687087
0.687094
0.687094
0.6871
0.687106
0.687113
0.687119
0.687119
0.687125
0.687132
0.687138
0.687145
0.687145
0.687151
0.687157
0.687164
0.68717
0.68717
0.687177
0.687183
0.687189
0.687196
0.687196
0.687202
0.687209
0.687215
0.687222
0.687222
0.687228
0.687234
0.687241
0.687247
0.687247
0.687254
0.68726
0.687267
0.687273
0.687273
0.68728
0.687286
0.687293
0.687299
0.687299
0.687306
0.687312
0.687319
0.687325
0.687325
0.687332
0.687338
0.687345
0.687352
0.687352
0.687358
0.687365
0.687371
0.687378
0.687378
0.687384
0.687391
0.687398
0.687404
0.687404
0.687411
0.687417
0.687424
0.687431
0.687431
0.687437
0.687444
0.687451
0.687457
0.687457
0.687464
0.687471
0.687477
0.687484
0.687484
0.687491
0.687497
0.687504
0.687511
0.687511
0.687517
0.687524
0.687531
0.687537
0.687537
0.687544
0.687551
0.687558
0.687564
0.687564
0.687571
0.687578
0.687585
0.687591
0.687591
0.687598
0.687605
0.687612
0.687618
0.687618
0.687625
0.687632
0.687639
0.687646
0.687646
0.687652
0.687659
0.687666
0.687673
0.687673
0.68768
0.687687
0.687693
0.6877
0.6877
0.687707
0.687714
0.687721
0.687728
0.687728
0.687734
0.687741
0.687748
0.687755
0.687755
0.687762
0.687769
0.687776
0.687783
0.687783
0.68779
0.687797
0.687804
0.687811
0.687811
0.687817
0.687824
0.687831
0.687838
0.687838
0.687845
0.687852
0.687859
0.687866
0.687866
0.687873
0.68788
0.687887
0.687894
0.687894
0.687901
0.687908
0.687915
0.687922
0.687922
0.687929
0.687936
0.687943
0.68795
0.68795
0.687958
0.687965
0.687972
0.687979
0.687979
0.687986
0.687993
0.688
0.688007
0.688007
0.688014
0.688021
0.688028
0.688036
0.688036
0.688043
0.68805
0.688057
0.688064
0.688064
0.688071
0.688078
0.688086
0.688093
0.688093
0.6881
0.688107
0.688114
0.688121
0.688121
0.688129
0.688136
0.688143
0.68815
0.68815
0.688158
0.688165
0.688172
0.688179
0.688179
0.688186
0.688194
0.688201
0.688208
0.688208
0.688215
0.688223
0.68823
0.688237
0.688237
0.688245
0.688252
0.688259
0.688267
0.688267
0.688274
0.688281
0.688288
0.688296
0.688296
0.688303
0.68831
0.688318
0.688325
0.688325
0.688332
0.68834
0.688347
0.688355
0.688355
0.688362
0.688369
0.688377
0.688384
0.688384
0.688392
0.688399
0.688406
0.688414
0.688414
0.688421
0.688429
0.688436
0.688444
0.688444
0.688451
0.688458
0.688466
0.688473
0.688473
0.688481
0.688488
0.688496
0.688503
0.688503
0.688511
0.688518
0.688526
0.688533
0.688533
0.688541
0.688548
0.688556
0.688563
0.688563
0.688571
0.688578
0.688586
0.688594
0.688594
0.688601
0.688609
0.688616
0.688624
0.688624
0.688631
0.688639
0.688647
0.688654
0.688654
0.688662
0.688669
0.688677
0.688685
0.688685
0.688692
0.6887
0.688708
0.688715
0.688715
0.688723
0.688731
0.688738
0.688746
0.688746
0.688754
0.688761
0.688769
0.688777
0.688777
0.688784
0.688792
0.6888
0.688807
0.688807
0.688815
0.688823
0.688831
0.688838
0.688838
0.688846
0.688854
0.688862
0.688869
0.688869
0.688877
0.688885
0.688893
0.688901
0.688901
0.688908
0.688916
0.688924
0.688932
0.688932
0.68894
0.688947
0.688955
0.688963
0.688963
0.688971
0.688979
0.688987
0.688994
0.688994
0.689002
0.68901
0.689018
0.689026
0.689026
0.689034
0.689042
0.68905
0.689058
0.689058
0.689065
0.689073
0.689081
0.689089
0.689089
0.689097
0.689105
0.689113
0.689121
0.689121
0.689129
0.689137
0.689145
0.689153
0.689153
0.689161
0.689169
0.689177
0.689185
0.689185
0.689193
0.689201
0.689209
0.689217
0.689217
0.689225
0.689233
0.689241
0.689249
0.689249
0.689257
0.689265
0.689273
0.689281
0.689281
0.689289
0.689297
0.689305
0.689313
0.689313
0.689322
0.68933
0.689338
0.689346
0.689346
0.689354
0.689362
0.68937
0.689378
0.689378
0.689387
0.689395
0.689403
0.689411
0.689411
0.689419
0.689427
0.689436
0.689444
0.689444
0.689452
0.68946
0.689468
0.689477
0.689477
0.689485
0.689493
0.689501
0.689509
0.689509
0.689518
0.689526
0.689534
0.689542
0.689542
0.689551
0.689559
0.689567
0.689575
0.689575
0.689584
0.689592
0.6896
0.689609
0.689609
0.689617
0.689625
0.689634
0.689642
0.689642
0.68965
0.689659
0.689667
0.689675
0.689675
0.689684
0.689692
0.6897
0.689709
0.689709
0.689717
0.689725
0.689734
0.689742
0.689742
0.689751
0.689759
0.689767
0.689776
0.689776
0.689784
0.689793
0.689801
0.68981
0.68981
0.689818
0.689826
0.689835
0.689843
0.689843
0.689852
0.68986
0.689869
0.689877
0.689877
0.689886
0.689894
0.689903
0.689911
0.689911
0.68992
0.689928
0.689937
0.689945
0.689945
0.689954
0.689962
0.689971
0.68998
0.68998
0.689988
0.689997
0.690005
0.690014
0.690014
0.690022
0.690031
0.69004
0.690048
0.690048
0.690057
0.690066
0.690074
0.690083
0.690083
0.690091
0.6901
0.690109
0.690117
0.690117
0.690126
0.690135
0.690143
0.690152
0.690152
0.690161
0.690169
0.690178
0.690187
0.690187
0.690195
0.690204
0.690213
0.690222
0.690222
0.69023
0.690239
0.690248
0.690257
0.690257
0.690265
0.690274
0.690283
0.690292
0.690292
0.6903
0.690309
0.690318
0.690327
0.690327
0.690336
0.690344
0.690353
0.690362
0.690362
0.690371
0.69038
0.690388
0.690397
0.690397
0.690406
0.690415
0.690424
0.690433
0.690433
0.690442
0.690451
0.690459
0.690468
0.690468
0.690477
0.690486
0.690495
0.690504
0.690504
0.690513
0.690522
0.690531
0.69054
0.69054
0.690549
0.690558
0.690566
0.690575
0.690575
0.690584
0.690593
0.690602
0.690611
0.690611
0.69062
0.690629
0.690638
0.690647
0.690647
0.690656
0.690665
0.690674
0.690683
0.690683
0.690693
0.690702
0.690711
0.69072
0.69072
0.690729
0.690738
0.690747
0.690756
0.690756
0.690765
0.690774
0.690783
0.690792
0.690792
0.690801
0.690811
0.69082
0.690829
0.690829
0.690838
0.690847
0.690856
0.690865
0.690865
0.690875
0.690884
0.690893
0.690902
0.690902
0.690911
0.69092
0.69093
0.690939
0.690939
0.690948
0.690957
0.690966
0.690976
0.690976
0.690985
0.690994
0.691003
0.691013
0.691013
0.691022
0.691031
0.69104
0.69105
0.69105
0.691059
0.691068
0.691078
0.691087
0.691087
0.691096
0.691105
0.691115
0.691124
0.691124
0.691133
0.691143
0.691152
0.691161
0.691161
0.691171
0.69118
0.691189
0.691199
0.691199
0.691208
0.691218
0.691227
0.691236
0.691236
0.691246
0.691255
0.691265
0.691274
0.691274
0.691283
0.691293
0.691302
0.691312
0.691312
0.691321
0.691331
0.69134
0.69135
0.69135
0.691359
0.691368
0.691378
0.691387
0.691387
0.691397
0.691406
0.691416
0.691425
0.691425
0.691435
0.691445
0.691454
0.691464
0.691464
0.691473
0.691483
0.691492
0.691502
0.691502
0.691511
0.691521
0.691531
0.69154
0.69154
0.69155
0.691559
0.691569
0.691579
0.691579
0.691588
0.691598
0.691607
0.691617
0.691617
0.691627
0.691636
0.691646
0.691656
0.691656
0.691665
0.691675
0.691685
0.691694
0.691694
0.691704
0.691714
0.691723
0.691733
0.691733
0.691743
0.691753
0.691762
0.691772
0.691772
0.691782
0.691791
0.691801
0.691811
0.691811
0.691821
0.69183
0.69184
0.69185
0.69185
0.69186
0.69187
0.691879
0.691889
0.691889
0.691899
0.691909
0.691919
0.691929
0.691929
0.691938
0.691948
0.691958
0.691968
0.691968
0.691978
0.691988
0.691997
0.692007
0.692007
0.692017
0.692027
0.692037
0.692047
0.692047
0.692057
0.692067
0.692077
0.692087
0.692087
0.692097
0.692106
0.692116
0.692126
0.692126
0.692136
0.692146
0.692156
0.692166
0.692166
0.692176
0.692186
0.692196
0.692206
0.692206
0.692216
0.692226
0.692236
0.692246
0.692246
0.692256
0.692266
0.692276
0.692286
0.692286
0.692296
0.692306
0.692317
0.692327
0.692327
0.692337
0.692347
0.692357
0.692367
0.692367
0.692377
0.692387
0.692397
0.692407
0.692407
0.692418
0.692428
0.692438
0.692448
0.692448
0.692458
0.692468
0.692478
0.692489
0.692489
0.692499
0.692509
0.692519
0.692529
0.692529
0.69254
0.69255
0.69256
0.69257
0.69257
0.69258
0.692591
0.692601
0.692611
0.692611
0.692621
0.692632
0.692642
0.692652
0.692652
0.692662
0.692673
0.692683
0.692693
0.692693
0.692704
0.692714
0.692724
0.692735
0.692735
0.692745
0.692755
0.692766
0.692776
0.692776
0.692786
0.692797
0.692807
0.692817
0.692817
0.692828
0.692838
0.692848
0.692859
0.692859
0.692869
0.69288
0.69289
0.6929
0.6929
0.692911
0.692921
0.692932
0.692942
0.692942
0.692953
0.692963
0.692974
0.692984
0.692984
0.692995
0.693005
0.693015
0.693026
0.693026
0.693036
0.693047
0.693057
0.693068
0.693068
0.693079
0.693089
0.6931
0.69311
0.69311
0.693121
0.693131
0.693142
0.693152
0.693152
0.693163
0.693174
0.693184
0.693195
0.693195
0.693205
0.693216
0.693227
0.693237
0.693237
0.693248
0.693258
0.693269
0.69328
0.69328
0.69329
0.693301
0.693312
0.693322
0.693322
0.693333
0.693344
0.693354
0.693365
0.693365
0.693376
0.693386
0.693397
0.693408
0.693408
0.693419
0.693429
0.69344
0.693451
0.693451
0.693461
0.693472
0.693483
0.693494
0.693494
0.693505
0.693515
0.693526
0.693537
0.693537
0.693548
0.693558
0.693569
0.69358
0.69358
0.693591
0.693602
0.693613
0.693623
0.693623
0.693634
0.693645
0.693656
0.693667
0.693667
0.693678
0.693689
0.693699
0.69371
0.69371
0.693721
0.693732
0.693743
0.693754
0.693754
0.693765
0.693776
0.693787
0.693798
0.693798
0.693809
0.69382
0.693831
0.693842
0.693842
0.693853
0.693863
0.693874
0.693885
0.693885
0.693896
0.693907
0.693918
0.693929
0.693929
0.69394
0.693951
0.693963
0.693974
0.693974
0.693985
0.693996
0.694007
0.694018
0.694018
0.694029
0.69404
0.694051
0.694062
0.694062
0.694073
0.694084
0.694095
0.694107
0.694107
0.694118
0.694129
0.69414
0.694151
0.694151
0.694162
0.694173
0.694185
0.694196
0.694196
0.694207
0.694218
0.694229
0.69424
0.69424
0.694252
0.694263
0.694274
0.694285
0.694285
0.694297
0.694308
0.694319
0.69433
0.69433
0.694341
0.694353
0.694364
0.694375
0.694375
0.694387
0.694398
0.694409
0.69442
0.69442
0.694432
0.694443
0.694454
0.694466
0.694466
0.694477
0.694488
0.6945
0.694511
0.694511
0.694522
0.694534
0.694545
0.694556
0.694556
0.694568
0.694579
0.694591
0.694602
0.694602
0.694613
0.694625
0.694636
0.694648
0.694648
0.694659
0.69467
0.694682
0.694693
0.694693
0.694705
0.694716
0.694728
0.694739
0.694739
0.694751
0.694762
0.694774
0.694785
0.694785
0.694797
0.694808
0.69482
0.694831
0.694831
0.694843
0.694854
0.694866
0.694877
0.694877
0.694889
0.6949
0.694912
0.694924
0.694924
0.694935
0.694947
0.694958
0.69497
0.69497
0.694982
0.694993
0.695005
0.695016
0.695016
0.695028
0.69504
0.695051
0.695063
0.695063
0.695075
0.695086
0.695098
0.69511
0.69511
0.695121
0.695133
0.695145
0.695156
0.695156
0.695168
0.69518
0.695191
0.695203
0.695203
0.695215
0.695227
0.695238
0.69525
0.69525
0.695262
0.695274
0.695285
0.695297
0.695297
0.695309
0.695321
0.695333
0.695344
0.695344
0.695356
0.695368
0.69538
0.695392
0.695392
0.695404
0.695415
0.695427
0.695439
0.695439
0.695451
0.695463
0.695475
0.695487
0.695487
0.695498
0.69551
0.695522
0.695534
0.695534
0.695546
0.695558
0.69557
0.695582
0.695582
0.695594
0.695606
0.695618
0.69563
0.69563
0.695642
0.695654
0.695666
0.695677
0.695677
0.695689
0.695701
0.695713
0.695725
0.695725
0.695738
0.69575
0.695762
0.695774
0.695774
0.695786
0.695798
0.69581
0.695822
0.695822
0.695834
0.695846
0.695858
0.69587
0.69587
0.695882
0.695894
0.695906
0.695919
0.695919
0.695931
0.695943
0.695955
0.695967
0.695967
0.695979
0.695991
0.696003
0.696016
0.696016
0.696028
0.69604
0.696052
0.696064
0.696064
0.696077
0.696089
0.696101
0.696113
0.696113
0.696125
0.696138
0.69615
0.696162
0.696162
0.696174
0.696187
0.696199
0.696211
0.696211
0.696223
0.696236
0.696248
0.69626
0.69626
0.696273
0.696285
0.696297
0.69631
0.69631
0.696322
0.696334
0.696347
0.696359
0.696359
0.696371
0.696384
0.696396
0.696408
0.696408
0.696421
0.696433
0.696445
0.696458
0.696458
0.69647
0.696483
0.696495
0.696508
0.696508
0.69652
0.696532
0.696545
0.696557
0.696557
0.69657
0.696582
0.696595
0.696607
0.696607
0.69662
0.696632
0.696645
0.696657
0.696657
0.69667
0.696682
0.696695
0.696707
0.696707
0.69672
0.696732
0.696745
0.696757
0.696757
0.69677
0.696783
0.696795
0.696808
0.696808
0.69682
0.696833
0.696845
0.696858
0.696858
0.696871
0.696883
0.696896
0.696909
0.696909
0.696921
0.696934
0.696946
0.696959
0.696959
0.696972
0.696984
0.696997
0.69701
0.69701
0.697023
0.697035
0.697048
0.697061
0.697061
0.697073
0.697086
0.697099
0.697112
0.697112
0.697124
0.697137
0.69715
0.697163
0.697163
0.697175
0.697188
0.697201
0.697214
0.697214
0.697227
0.697239
0.697252
0.697265
0.697265
0.697278
0.697291
0.697303
0.697316
0.697316
0.697329
0.697342
0.697355
0.697368
0.697368
0.697381
0.697394
0.697406
0.697419
0.697419
0.697432
0.697445
0.697458
0.697471
0.697471
0.697484
0.697497
0.69751
0.697523
0.697523
0.697536
0.697549
0.697562
0.697575
0.697575
0.697588
0.697601
0.697614
0.697627
0.697627
0.69764
0.697653
0.697666
0.697679
0.697679
0.697692
0.697705
0.697718
0.697731
0.697731
0.697744
0.697757
0.69777
0.697783
0.697783
0.697796
0.697809
0.697822
0.697835
0.697835
0.697849
0.697862
0.697875
0.697888
0.697888
0.697901
0.697914
0.697927
0.697941
0.697941
0.697954
0.697967
0.69798
0.697993
0.697993
0.698007
0.69802
0.698033
0.698046
0.698046
0.698059
0.698073
0.698086
0.698099
0.698099
0.698112
0.698126
0.698139
0.698152
0.698152
0.698165
0.698179
0.698192
0.698205
0.698205
0.698219
0.698232
0.698245
0.698259
0.698259
0.698272
0.698285
0.698299
0.698312
0.698312
0.698325
0.698339
0.698352
0.698365
0.698365
0.698379
0.698392
0.698406
0.698419
0.698419
0.698432
0.698446
0.698459
0.698473
0.698473
0.698486
0.698499
0.698513
0.698526
0.698526
0.69854
0.698553
0.698567
0.69858
0.69858
0.698594
0.698607
0.698621
0.698634
0.698634
0.698648
0.698661
0.698675
0.698688
0.698688
0.698702
0.698715
0.698729
0.698743
0.698743
0.698756
0.69877
0.698783
0.698797
0.698797
0.698811
0.698824
0.698838
0.698851
0.698851
0.698865
0.698879
0.698892
0.698906
0.698906
0.69892
0.698933
0.698947
0.698961
0.698961
0.698974
0.698988
0.699002
0.699015
0.699015
0.699029
0.699043
0.699056
0.69907
0.69907
0.699084
0.699098
0.699111
0.699125
0.699125
0.699139
0.699153
0.699166
0.69918
0.69918
0.699194
0.699208
0.699222
0.699235
0.699235
0.699249
0.699263
0.699277
0.699291
0.699291
0.699305
0.699318
0.699332
0.699346
0.699346
0.69936
0.699374
0.699388
0.699402
0.699402
0.699416
0.699429
0.699443
0.699457
0.699457
0.699471
0.699485
0.699499
0.699513
0.699513
0.699527
0.699541
0.699555
0.699569
0.699569
0.699583
0.699597
0.699611
0.699625
0.699625
0.699639
0.699653
0.699667
0.699681
0.699681
0.699695
0.699709
0.699723
0.699737
0.699737
0.699751
0.699765
0.699779
0.699793
0.699793
0.699807
0.699822
0.699836
0.69985
0.69985
0.699864
0.699878
0.699892
0.699906
0.699906
0.69992
0.699935
0.699949
0.699963
0.699963
0.699977
0.699991
0.700005
0.70002
0.70002
0.700034
0.700048
0.700062
0.700076
0.700076
0.700091
0.700105
0.700119
0.700133
0.700133
0.700148
0.700162
0.700176
0.70019
0.70019
0.700205
0.700219
0.700233
0.700248
0.700248
0.700262
0.700276
0.70029
0.700305
0.700305
0.700319
0.700333
0.700348
0.700362
0.700362
0.700377
0.700391
0.700405
0.70042
0.70042
0.700434
0.700448
0.700463
0.700477
0.700477
0.700492
0.700506
0.700521
0.700535
0.700535
0.700549
0.700564
0.700578
0.700593
0.700593
0.700607
0.700622
0.700636
0.700651
0.700651
0.700665
0.70068
0.700694
0.700709
0.700709
0.700723
0.700738
0.700752
0.700767
0.700767
0.700781
0.700796
0.700811
0.700825
0.700825
0.70084
0.700854
0.700869
0.700884
0.700884
0.700898
0.700913
0.700927
0.700942
0.700942
0.700957
0.700971
0.700986
0.701001
0.701001
0.701015
0.70103
0.701045
0.701059
0.701059
0.701074
0.701089
0.701103
0.701118
0.701118
0.701133
0.701148
0.701162
0.701177
0.701177
0.701192
0.701207
0.701221
0.701236
0.701236
0.701251
0.701266
0.70128
0.701295
0.701295
0.70131
0.701325
0.70134
0.701355
0.701355
0.701369
0.701384
0.701399
0.701414
0.701414
0.701429
0.701444
0.701459
0.701473
0.701473
0.701488
0.701503
0.701518
0.701533
0.701533
0.701548
0.701563
0.701578
0.701593
0.701593
0.701608
0.701623
0.701638
0.701653
0.701653
0.701667
0.701682
0.701697
0.701712
0.701712
0.701727
0.701742
0.701757
0.701773
0.701773
0.701788
0.701803
0.701818
0.701833
0.701833
0.701848
0.701863
0.701878
0.701893
0.701893
0.701908
0.701923
0.701938
0.701953
0.701953
0.701968
0.701984
0.701999
0.702014
0.702014
0.702029
0.702044
0.702059
0.702074
0.702074
0.70209
0.702105
0.70212
0.702135
0.702135
0.70215
0.702166
0.702181
0.702196
0.702196
0.702211
0.702226
0.702242
0.702257
0.702257
0.702272
0.702287
0.702303
0.702318
0.702318
0.702333
0.702349
0.702364
0.702379
0.702379
0.702394
0.70241
0.702425
0.70244
0.70244
0.702456
0.702471
0.702486
0.702502
0.702502
0.702517
0.702533
0.702548
0.702563
0.702563
0.702579
0.702594
0.70261
0.702625
0.702625
0.70264
0.702656
0.702671
0.702687
0.702687
0.702702
0.702718
0.702733
0.702749
0.702749
0.702764
0.70278
0.702795
0.702811
0.702811
0.702826
0.702842
0.702857
0.702873
0.702873
0.702888
0.702904
0.702919
0.702935
0.702935
0.70295
0.702966
0.702981
0.702997
0.702997
0.703013
0.703028
0.703044
0.70306
0.70306
0.703075
0.703091
0.703106
0.703122
0.703122
0.703138
0.703153
0.703169
0.703185
0.703185
0.7032
0.703216
0.703232
0.703247
0.703247