<?xml version="1.0"?>
<VTKFile type="UnstructuredGrid" version="0.1" byte_order="LittleEndian">
<UnstructuredGrid>
<Piece NumberOfPoints="5000" NumberOfCells="4000">
<PointData Scalars="Reaction 0">
<DataArray type="Float32" Name="Reaction 0" format="ascii">
0.649639
0.649639
0.649639
0.649639
0.649639
0.649639
0.649639
0.649639
0.649639
0.649639
0.649639
0.649639
0.649639
0.649639
0.64964
0.64964
0.64964
0.64964
0.64964
0.64964
0.64964
0.64964
0.64964
0.64964
0.64964
0.64964
0.64964
0.64964
0.64964
0.64964
0.64964
0.64964
0.649641
0.649641
0.649641
0.649641
0.649641
0.649641
0.649641
0.649641
0.649641
0.649641
0.649641
0.649642
0.649642
0.649642
0.649642
0.649642
0.649642
0.649642
0.649642
0.649642
0.649643
0.649643
0.649643
0.649643
0.649643
0.649643
0.649643
0.649644
0.649644
0.649644
0.649644
0.649644
0.649644
0.649644
0.649644
0.649645
0.649645
0.649645
0.649645
0.649645
0.649646
0.649646
0.649646
0.649646
0.649646
0.649646
0.649647
0.649647
0.649647
0.649647
0.649647
0.649648
0.649648
0.649648
0.649648
0.649648
0.649649
0.649649
0.649649
0.649649
0.649649
0.64965
0.64965
0.64965
0.64965
0.649651
0.649651
0.649651
0.649651
0.649651
0.649652
0.649652
0.649652
0.649652
0.649653
0.649653
0.649653
0.649654
0.649654
0.649654
0.649654
0.649655
0.649655
0.649655
0.649655
0.649656
0.649656
0.649656
0.649656
0.649657
0.649657
0.649657
0.649658
0.649658
0.649658
0.649659
0.649659
0.649659
0.649659
0.64966
0.64966
0.649661
0.649661
0.649661
0.649661
0.649662
0.649662
0.649663
0.649663
0.649663
0.649663
0.649664
0.649664
0.649664
0.649665
0.649665
0.649666
0.649666
0.649666
0.649666
0.649667
0.649667
0.649668
0.649668
0.649668
0.649669
0.649669
0.64967
0.64967
0.64967
0.649671
0.649671
0.649672
0.649672
0.649672
0.649673
0.649673
0.649674
0.649674
0.649674
0.649675
0.649675
0.649676
0.649676
0.649676
0.649677
0.649677
0.649678
0.649678
0.649678
0.649679
0.649679
0.64968
0.64968
0.649681
0.649681
0.649682
0.649682
0.649682
0.649683
0.649683
0.649684
0.649685
0.649685
0.649685
0.649686
0.649686
0.649687
0.649687
0.649687
0.649688
0.649689
0.649689
0.649689
0.64969
0.649691
0.649691
0.649692
0.649692
0.649692
0.649693
0.649694
0.649694
0.649694
0.649695
0.649696
0.649696
0.649697
0.649697
0.649698
0.649698
0.649699
0.6497
0.6497
0.6497
0.649701
0.649702
0.649702
0.649702
0.649703
0.649704
0.649704
0.649705
0.649705
0.649706
0.649706
0.649707
0.649708
0.649708
0.649709
0.649709
0.64971
0.649711
0.649711
0.649711
0.649712
0.649713
0.649714
0.649714
0.649714
0.649715
0.649716
0.649717
0.649717
0.649717
0.649718
0.649719
0.64972
0.64972
0.649721
0.649721
0.649722
0.649723
0.649723
0.649724
0.649724
0.649725
0.649726
0.649726
0.649727
0.649728
0.649729
0.649729
0.649729
0.64973
0.649731
0.649732
0.649733
0.649733
0.649733
0.649734
0.649735
0.649736
0.649736
0.649737
0.649738
0.649739
0.649739
0.649739
0.64974
0.649741
0.649742
0.649743
0.649743
0.649744
0.649745
0.649746
0.649746
0.649746
0.649747
0.649748
0.649749
0.64975
0.64975
0.649751
0.649752
0.649753
0.649754
0.649754
0.649755
0.649756
0.649757
0.649757
0.649757
0.649758
0.649759
0.64976
0.649761
0.649761
0.649762
0.649763
0.649764
0.649765
0.649765
0.649766
0.649767
0.649768
0.649769
0.649769
0.64977
0.649771
0.649772
0.649773
0.649773
0.649774
0.649775
0.649776
0.649777
0.649777
0.649778
0.649779
0.64978
0.649781
0.649781
0.649782
0.649783
0.649784
0.649785
0.649785
0.649786
0.649787
0.649788
0.649789
0.649789
0.64979
0.649792
0.649793
0.649794
0.649794
0.649795
0.649796
0.649797
0.649798
0.649798
0.649799
0.6498
0.649801
0.649802
0.649802
0.649803
0.649805
0.649806
0.649807
0.649807
0.649808
0.649809
0.64981
0.649811
0.649811
0.649812
0.649814
0.649815
0.649816
0.649816
0.649817
0.649818
0.649819
0.649821
0.649821
0.649822
0.649823
0.649824
0.649825
0.649825
0.649826
0.649828
0.649829
0.64983
0.64983
0.649831
0.649832
0.649834
0.649835
0.649835
0.649836
0.649837
0.649838
0.64984
0.64984
0.649841
0.649842
0.649843
0.649845
0.649845
0.649846
0.649847
0.649848
0.64985
0.64985
0.649851
0.649852
0.649853
0.649855
0.649855
0.649856
0.649857
0.649858
0.64986
0.64986
0.649861
0.649862
0.649864
0.649865
0.649865
0.649866
0.649867
0.649869
0.64987
0.64987
0.649871
0.649873
0.649874
0.649875
0.649875
0.649877
0.649878
0.649879
0.649881
0.649881
0.649882
0.649883
0.649885
0.649886
0.649886
0.649887
0.649889
0.64989
0.649892
0.649892
0.649893
0.649894
0.649896
0.649897
0.649897
0.649898
0.6499
0.649901
0.649903
0.649903
0.649904
0.649905
0.649907
0.649908
0.649908
0.64991
0.649911
0.649913
0.649914
0.649914
0.649915
0.649917
0.649918
0.64992
0.64992
0.649921
0.649923
0.649924
0.649926
0.649926
0.649927
0.649929
0.64993
0.649931
0.649931
0.649933
0.649934
0.649936
0.649937
0.649937
0.649939
0.64994
0.649942
0.649943
0.649943
0.649945
0.649946
0.649948
0.649949
0.649949
0.649951
0.649953
0.649954
0.649956
0.649956
0.649957
0.649959
0.64996
0.649962
0.649962
0.649963
0.649965
0.649966
0.649968
0.649968
0.64997
0.649971
0.649973
0.649974
0.649974
0.649976
0.649978
0.649979
0.649981
0.649981
0.649982
0.649984
0.649986
0.649987
0.649987
0.649989
0.64999
0.649992
0.649994
0.649994
0.649995
0.649997
0.649999
0.65
0.65
0.650002
0.650003
0.650005
0.650007
0.650007
0.650008
0.65001
0.650012
0.650013
0.650013
0.650015
0.650017
0.650018
0.65002
0.65002
0.650022
0.650024
0.650025
0.650027
0.650027
0.650029
0.65003
0.650032
0.650034
0.650034
0.650036
0.650037
0.650039
0.650041
0.650041
0.650042
0.650044
0.650046
0.650048
0.650048
0.650049
0.650051
0.650053
0.650055
0.650055
0.650056
0.650058
0.65006
0.650062
0.650062
0.650064
0.650065
0.650067
0.650069
0.650069
0.650071
0.650073
0.650074
0.650076
0.650076
0.650078
0.65008
0.650082
0.650083
0.650083
0.650085
0.650087
0.650089
0.650091
0.650091
0.650093
0.650094
0.650096
0.650098
0.650098
0.6501
0.650102
0.650104
0.650106
0.650106
0.650107
0.650109
0.650111
0.650113
0.650113
0.650115
0.650117
0.650119
0.650121
0.650121
0.650123
0.650125
0.650126
0.650128
0.650128
0.65013
0.650132
0.650134
0.650136
0.650136
0.650138
0.65014
0.650142
0.650144
0.650144
0.650146
0.650148
0.65015
0.650152
0.650152
0.650154
0.650156
0.650157
0.650159
0.650159
0.650161
0.650163
0.650165
0.650167
0.650167
0.650169
0.650171
0.650173
0.650175
0.650175
0.650177
0.650179
0.650181
0.650183
0.650183
0.650185
0.650187
0.65019
0.650192
0.650192
0.650194
0.650196
0.650198
0.6502
0.6502
0.650202
0.650204
0.650206
0.650208
0.650208
0.65021
0.650212
0.650214
0.650216
0.650216
0.650218
0.65022
0.650223
0.650225
0.650225
0.650227
0.650229
0.650231
0.650233
0.650233
0.650235
0.650237
0.650239
0.650242
0.650242
0.650244
0.650246
0.650248
0.65025
0.65025
0.650252
0.650254
0.650257
0.650259
0.650259
0.650261
0.650263
0.650265
0.650267
0.650267
0.65027
0.650272
0.650274
0.650276
0.650276
0.650278
0.65028
0.650283
0.650285
0.650285
0.650287
0.650289
0.650292
0.650294
0.650294
0.650296
0.650298
0.6503
0.650303
0.650303
0.650305
0.650307
0.650309
0.650312
0.650312
0.650314
0.650316
0.650318
0.650321
0.650321
0.650323
0.650325
0.650327
0.65033
0.65033
0.650332
0.650334
0.650337
0.650339
0.650339
0.650341
0.650343
0.650346
0.650348
0.650348
0.65035
0.650353
0.650355
0.650357
0.650357
0.65036
0.650362
0.650364
0.650367
0.650367
0.650369
0.650371
0.650374
0.650376
0.650376
0.650378
0.650381
0.650383
0.650386
0.650386
0.650388
0.65039
0.650393
0.650395
0.650395
0.650397
0.6504
0.650402
0.650405
0.650405
0.650407
0.650409
0.650412
0.650414
0.650414
0.650417
0.650419
0.650422
0.650424
0.650424
0.650426
0.650429
0.650431
0.650434
0.650434
0.650436
0.650439
0.650441
0.650444
0.650444
0.650446
0.650449
0.650451
0.650453
0.650453
0.650456
0.650458
0.650461
0.650463
0.650463
0.650466
0.650468
0.650471
0.650473
0.650473
0.650476
0.650478
0.650481
0.650484
0.650484
0.650486
0.650489
0.650491
0.650494
0.650494
0.650496
0.650499
0.650501
0.650504
0.650504
0.650506
0.650509
0.650512
0.650514
0.650514
0.650517
0.650519
0.650522
0.650524
0.650524
0.650527
0.65053
0.650532
0.650535
0.650535
0.650537
0.65054
0.650543
0.650545
0.650545
0.650548
0.65055
0.650553
0.650556
0.650556
0.650558
0.650561
0.650564
0.650566
0.650566
0.650569
0.650572
0.650574
0.650577
0.650577
0.65058
0.650582
0.650585
0.650588
0.650588
0.65059
0.650593
0.650596
0.650598
0.650598
0.650601
0.650604
0.650606
0.650609
0.650609
0.650612
0.650615
0.650617
0.65062
0.65062
0.650623
0.650625
0.650628
0.650631
0.650631
0.650634
0.650636
0.650639
0.650642
0.650642
0.650645
0.650647
0.65065
0.650653
0.650653
0.650656
0.650659
0.650661
0.650664
0.650664
0.650667
0.65067
0.650672
0.650675
0.650675
0.650678
0.650681
0.650684
0.650686
0.650686
0.650689
0.650692
0.650695
0.650698
0.650698
0.650701
0.650703
0.650706
0.650709
0.650709
0.650712
0.650715
0.650718
0.650721
0.650721
0.650723
0.650726
0.650729
0.650732
0.650732
0.650735
0.650738
0.650741
0.650744
0.650744
0.650746
0.650749
0.650752
0.650755
0.650755
0.650758
0.650761
0.650764
0.650767
0.650767
0.65077
0.650773
0.650776
0.650779
0.650779
0.650782
0.650785
0.650787
0.65079
0.65079
0.650793
0.650796
0.650799
0.650802
0.650802
0.650805
0.650808
0.650811
0.650814
0.650814
0.650817
0.65082
0.650823
0.650826
0.650826
0.650829
0.650832
0.650835
0.650838
0.650838
0.650841
0.650844
0.650847
0.65085
0.65085
0.650853
0.650856
0.650859
0.650862
0.650862
0.650866
0.650869
0.650872
0.650875
0.650875
0.650878
0.650881
0.650884
0.650887
0.650887
0.65089
0.650893
0.650896
0.650899
0.650899
0.650902
0.650906
0.650909
0.650912
0.650912
0.650915
0.650918
0.650921
0.650924
0.650924
0.650927
0.65093
0.650934
0.650937
0.650937
0.65094
0.650943
0.650946
0.650949
0.650949
0.650953
0.650956
0.650959
0.650962
0.650962
0.650965
0.650968
0.650972
0.650975
0.650975
0.650978
0.650981
0.650984
0.650988
0.650988
0.650991
0.650994
0.650997
0.651
0.651
0.651004
0.651007
0.65101
0.651013
0.651013
0.651017
0.65102
0.651023
0.651026
0.651026
0.65103
0.651033
0.651036
0.651039
0.651039
0.651043
0.651046
0.651049
0.651052
0.651052
0.651056
0.651059
0.651062
0.651066
0.651066
0.651069
0.651072
0.651075
0.651079
0.651079
0.651082
0.651085
0.651089
0.651092
0.651092
0.651095
0.651099
0.651102
0.651105
0.651105
0.651109
0.651112
0.651115
0.651119
0.651119
0.651122
0.651126
0.651129
0.651132
0.651132
0.651136
0.651139
0.651142
0.651146
0.651146
0.651149
0.651153
0.651156
0.651159
0.651159
0.651163
0.651166
0.65117
0.651173
0.651173
0.651177
0.65118
0.651183
0.651187
0.651187
0.65119
0.651194
0.651197
0.651201
0.651201
0.651204
0.651208
0.651211
0.651214
0.651214
0.651218
0.651221
0.651225
0.651228
0.651228
0.651232
0.651235
0.651239
0.651242
0.651242
0.651246
0.651249
0.651253
0.651256
0.651256
0.65126
0.651263
0.651267
0.651271
0.651271
0.651274
0.651278
0.651281
0.651285
0.651285
0.651288
0.651292
0.651295
0.651299
0.651299
0.651302
0.651306
0.65131
0.651313
0.651313
0.651317
0.65132
0.651324
0.651328
0.651328
0.651331
0.651335
0.651338
0.651342
0.651342
0.651346
0.651349
0.651353
0.651356
0.651356
0.65136
0.651364
0.651367
0.651371
0.651371
0.651375
0.651378
0.651382
0.651386
0.651386
0.651389
0.651393
0.651397
0.6514
0.6514
0.651404
0.651408
0.651411
0.651415
0.651415
0.651419
0.651422
0.651426
0.65143
0.65143
0.651434
0.651437
0.651441
0.651445
0.651445
0.651448
0.651452
0.651456
0.65146
0.65146
0.651463
0.651467
0.651471
0.651475
0.651475
0.651478
0.651482
0.651486
0.65149
0.65149
0.651493
0.651497
0.651501
0.651505
0.651505
0.651508
0.651512
0.651516
0.65152
0.65152
0.651524
0.651528
0.651531
0.651535
0.651535
0.651539
0.651543
0.651547
0.65155
0.65155
0.651554
0.651558
0.651562
0.651566
0.651566
0.65157
0.651574
0.651577
0.651581
0.651581
0.651585
0.651589
0.651593
0.651597
0.651597
0.651601
0.651605
0.651608
0.651612
0.651612
0.651616
0.65162
0.651624
0.651628
0.651628
0.651632
0.651636
0.65164
0.651644
0.651644
0.651648
0.651651
0.651655
0.651659
0.651659
0.651663
0.651667
0.651671
0.651675
0.651675
0.651679
0.651683
0.651687
0.651691
0.651691
0.651695
0.651699
0.651703
0.651707
0.651707
0.651711
0.651715
0.651719
0.651723
0.651723
0.651727
0.651731
0.651735
0.651739
0.651739
0.651743
0.651747
0.651751
0.651755
0.651755
0.651759
0.651763
0.651767
0.651771
0.651771
0.651775
0.651779
0.651784
0.651788
0.651788
0.651792
0.651796
0.6518
0.651804
0.651804
0.651808
0.651812
0.651816
0.65182
0.65182
0.651824
0.651829
0.651833
0.651837
0.651837
0.651841
0.651845
0.651849
0.651853
0.651853
0.651857
0.651862
0.651866
0.65187
0.65187
0.651874
0.651878
0.651882
0.651887
0.651887
0.651891
0.651895
0.651899
0.651903
0.651903
0.651907
0.651912
0.651916
0.65192
0.65192
0.651924
0.651928
0.651933
0.651937
0.651937
0.651941
0.651945
0.65195
0.651954
0.651954
0.651958
0.651962
0.651966
0.651971
0.651971
0.651975
0.651979
0.651983
0.651988
0.651988
0.651992
0.651996
0.652001
0.652005
0.652005
0.652009
0.652013
0.652018
0.652022
0.652022
0.652026
0.652031
0.652035
0.652039
0.652039
0.652043
0.652048
0.652052
0.652056
0.652056
0.652061
0.652065
0.652069
0.652074
0.652074
0.652078
0.652083
0.652087
0.652091
0.652091
0.652096
0.6521
0.652104
0.652109
0.652109
0.652113
0.652118
0.652122
0.652126
0.652126
0.652131
0.652135
0.652139
0.652144
0.652144
0.652148
0.652153
0.652157
0.652162
0.652162
0.652166
0.65217
0.652175
0.652179
0.652179
0.652184
0.652188
0.652193
0.652197
0.652197
0.652202
0.652206
0.65221
0.652215
0.652215
0.652219
0.652224
0.652228
0.652233
0.652233
0.652237
0.652242
0.652246
0.652251
0.652251
0.652255
0.65226
0.652264
0.652269
0.652269
0.652273
0.652278
0.652283
0.652287
0.652287
0.652292
0.652296
0.652301
0.652305
0.652305
0.65231
0.652314
0.652319
0.652324
0.652324
0.652328
0.652333
0.652337
0.652342
0.652342
0.652346
0.652351
0.652356
0.65236
0.65236
0.652365
0.652369
0.652374
0.652379
0.652379
0.652383
0.652388
0.652393
0.652397
0.652397
0.652402
0.652407
0.652411
0.652416
0.652416
0.65242
0.652425
0.65243
0.652434
0.652434
0.652439
0.652444
0.652448
0.652453
0.652453
0.652458
0.652463
0.652467
0.652472
0.652472
0.652477
0.652481
0.652486
0.652491
0.652491
0.652495
0.6525
0.652505
0.65251
0.65251
0.652514
0.652519
0.652524
0.652529
0.652529
0.652533
0.652538
0.652543
0.652548
0.652548
0.652552
0.652557
0.652562
0.652567
0.652567
0.652572
0.652576
0.652581
0.652586
0.652586
0.652591
0.652596
0.6526
0.652605
0.652605
0.65261
0.652615
0.65262
0.652625
0.652625
0.652629
0.652634
0.652639
0.652644
0.652644
0.652649
0.652654
0.652658
0.652663
0.652663
0.652668
0.652673
0.652678
0.652683
0.652683
0.652688
0.652693
0.652698
0.652702
0.652702
0.652707
0.652712
0.652717
0.652722
0.652722
0.652727
0.652732
0.652737
0.652742
0.652742
0.652747
0.652752
0.652757
0.652761
0.652761
0.652766
0.652771
0.652776
0.652781
0.652781
0.652786
0.652791
0.652796
0.652801
0.652801
0.652806
0.652811
0.652816
0.652821
0.652821
0.652826
0.652831
0.652836
0.652841
0.652841
0.652846
0.652851
0.652856
0.652861
0.652861
0.652866
0.652871
0.652876
0.652881
0.652881
0.652886
0.652892
0.652897
0.652902
0.652902
0.652907
0.652912
0.652917
0.652922
0.652922
0.652927
0.652932
0.652937
0.652942
0.652942
0.652947
0.652953
0.652958
0.652963
0.652963
0.652968
0.652973
0.652978
0.652983
0.652983
0.652988
0.652994
0.652999
0.653004
0.653004
0.653009
0.653014
0.653019
0.653024
0.653024
0.65303
0.653035
0.65304
0.653045
0.653045
0.65305
0.653055
0.653061
0.653066
0.653066
0.653071
0.653076
0.653081
0.653087
0.653087
0.653092
0.653097
0.653102
0.653108
0.653108
0.653113
0.653118
0.653123
0.653129
0.653129
0.653134
0.653139
0.653144
0.65315
0.65315
0.653155
0.65316
0.653165
0.653171
0.653171
0.653176
0.653181
0.653186
0.653192
0.653192
0.653197
0.653202
0.653208
0.653213
0.653213
0.653218
0.653224
0.653229
0.653234
0.653234
0.65324
0.653245
0.65325
0.653256
0.653256
0.653261
0.653266
0.653272
0.653277
0.653277
0.653282
0.653288
0.653293
0.653299
0.653299
0.653304
0.653309
0.653315
0.65332
0.65332
0.653326
0.653331
0.653336
0.653342
0.653342
0.653347
0.653353
0.653358
0.653363
0.653363
0.653369
0.653374
0.65338
0.653385
0.653385
0.653391
0.653396
0.653402
0.653407
0.653407
0.653413
0.653418
0.653423
0.653429
0.653429
0.653434
0.65344
0.653445
0.653451
0.653451
0.653456
0.653462
0.653467
0.653473
0.653473
0.653478
0.653484
0.653489
0.653495
0.653495
0.653501
0.653506
0.653512
0.653517
0.653517
0.653523
0.653528
0.653534
0.653539
0.653539
0.653545
0.653551
0.653556
0.653562
0.653562
0.653567
0.653573
0.653579
0.653584
0.653584
0.65359
0.653595
0.653601
0.653607
0.653607
0.653612
0.653618
0.653623
0.653629
0.653629
0.653635
0.65364
0.653646
0.653652
0.653652
0.653657
0.653663
0.653669
0.653674
0.653674
0.65368
0.653686
0.653691
0.653697
0.653697
0.653703
0.653708
0.653714
0.65372
0.65372
0.653725
0.653731
0.653737
0.653743
0.653743
0.653748
0.653754
0.65376
0.653765
0.653765
0.653771
0.653777
0.653783
0.653788
0.653788
0.653794
0.6538
0.653806
0.653811
0.653811
0.653817
0.653823
0.653829
0.653835
0.653835
0.65384
0.653846
0.653852
0.653858
0.653858
0.653864
0.653869
0.653875
0.653881
0.653881
0.653887
0.653893
0.653898
0.653904
0.653904
0.65391
0.653916
0.653922
0.653928
0.653928
0.653934
0.653939
0.653945
0.653951
0.653951
0.653957
0.653963
0.653969
0.653975
0.653975
0.653981
0.653987
0.653992
0.653998
0.653998
0.654004
0.65401
0.654016
0.654022
0.654022
0.654028
0.654034
0.65404
0.654046
0.654046
0.654052
0.654058
0.654063
0.654069
0.654069
0.654075
0.654081
0.654087
0.654093
0.654093
0.654099
0.654105
0.654111
0.654117
0.654117
0.654123
0.654129
0.654135
0.654141
0.654141
0.654147
0.654153
0.654159
0.654165
0.654165
0.654171
0.654177
0.654183
0.654189
0.654189
0.654195
0.654202
0.654208
0.654214
0.654214
0.65422
0.654226
0.654232
0.654238
0.654238
0.654244
0.65425
0.654256
0.654262
0.654262
0.654268
0.654275
0.654281
0.654287
0.654287
0.654293
0.654299
0.654305
0.654311
0.654311
0.654317
0.654323
0.65433
0.654336
0.654336
0.654342
0.654348
0.654354
0.65436
0.65436
0.654367
0.654373
0.654379
0.654385
0.654385
0.654391
0.654397
0.654404
0.65441
0.65441
0.654416
0.654422
0.654428
0.654435
0.654435
0.654441
0.654447
0.654453
0.65446
0.65446
0.654466
0.654472
0.654478
0.654484
0.654484
0.654491
0.654497
0.654503
0.65451
0.65451
0.654516
0.654522
0.654528
0.654535
0.654535
0.654541
0.654547
0.654554
0.65456
0.65456
0.654566
0.654572
0.654579
0.654585
0.654585
0.654591
0.654598
0.654604
0.65461
0.65461
0.654617
0.654623
0.654629
0.654636
0.654636
0.654642
0.654648
0.654655
0.654661
0.654661
0.654668
0.654674
0.65468
0.654687
0.654687
0.654693
0.6547
0.654706
0.654712
0.654712
0.654719
0.654725
0.654732
0.654738
0.654738
0.654744
0.654751
0.654757
0.654764
0.654764
0.65477
0.654777
0.654783
0.654789
0.654789
0.654796
0.654802
0.654809
0.654815
0.654815
0.654822
0.654828
0.654835
0.654841
0.654841
0.654848
0.654854
0.654861
0.654867
0.654867
0.654874
0.65488
0.654887
0.654893
0.654893
0.6549
0.654907
0.654913
0.65492
0.65492
0.654926
0.654933
0.654939
0.654946
0.654946
0.654952
0.654959
0.654965
0.654972
0.654972
0.654979
0.654985
0.654992
0.654998
0.654998
0.655005
0.655012
0.655018
0.655025
0.655025
0.655032
0.655038
0.655045
0.655051
0.655051
0.655058
0.655065
0.655071
0.655078
0.655078
0.655085
0.655091
0.655098
0.655105
0.655105
0.655111
0.655118
0.655125
0.655131
0.655131
0.655138
0.655145
0.655151
0.655158
0.655158
0.655165
0.655172
0.655178
0.655185
0.655185
0.655192
0.655198
0.655205
0.655212
0.655212
0.655219
0.655225
0.655232
0.655239
0.655239
0.655246
0.655252
0.655259
0.655266
0.655266
0.655273
0.65528
0.655286
0.655293
0.655293
0.6553
0.655307
0.655314
0.65532
0.65532
0.655327
0.655334
0.655341
0.655348
0.655348
0.655354
0.655361
0.655368
0.655375
0.655375
0.655382
0.655389
0.655395
0.655402
0.655402
0.655409
0.655416
0.655423
0.65543
0.65543
0.655437
0.655444
0.655451
0.655457
0.655457
0.655464
0.655471
0.655478
0.655485
0.655485
0.655492
0.655499
0.655506
0.655513
0.655513
0.65552
0.655527
0.655534
0.655541
0.655541
0.655547
0.655554
0.655561
0.655568
0.655568
0.655575
0.655582
0.655589
0.655596
0.655596
0.655603
0.65561
0.655617
0.655624
0.655624
0.655631
0.655638
0.655645
0.655652
0.655652
0.655659
0.655666
0.655673
0.655681
0.655681
0.655688
0.655695
0.655702
0.655709
0.655709
0.655716
0.655723
0.65573
0.655737
0.655737
0.655744
0.655751
0.655758
0.655765
0.655765
0.655773
0.65578
0.655787
0.655794
0.655794
0.655801
0.655808
0.655815
0.655822
0.655822
0.655829
0.655837
0.655844
0.655851
0.655851
0.655858
0.655865
0.655872
0.65588
0.65588
0.655887
0.655894
0.655901
0.655908
0.655908
0.655915
0.655923
0.65593
0.655937
0.655937
0.655944
0.655951
0.655959
0.655966
0.655966
0.655973
0.65598
0.655988
0.655995
0.655995
0.656002
0.656009
0.656017
0.656024
0.656024
0.656031
0.656038
0.656046
0.656053
0.656053
0.65606
0.656067
0.656075
0.656082
0.656082
0.656089
0.656097
0.656104
0.656111
0.656111
0.656119
0.656126
0.656133
0.656141
0.656141
0.656148
0.656155
0.656163
0.65617
0.65617
0.656177
0.656185
0.656192
0.656199
0.656199
0.656207
0.656214
0.656221
0.656229
0.656229
0.656236
0.656244
0.656251
0.656258
0.656258
0.656266
0.656273
0.656281
0.656288
0.656288
0.656295
0.656303
0.65631
0.656318
0.656318
0.656325
0.656333
0.65634
0.656348
0.656348
0.656355
0.656363
0.65637
0.656378
0.656378
0.656385
0.656392
0.6564
0.656407
0.656407
0.656415
0.656422
0.65643
0.656437
0.656437
0.656445
0.656452
0.65646
0.656468
0.656468
0.656475
0.656483
0.65649
0.656498
0.656498
0.656505
0.656513
0.65652
0.656528
0.656528
0.656536
0.656543
0.656551
0.656558
0.656558
0.656566
0.656573
0.656581
0.656589
0.656589
0.656596
0.656604
0.656611
0.656619
0.656619
0.656627
0.656634
0.656642
0.65665
0.65665
0.656657
0.656665
0.656673
0.65668
0.65668
0.656688
0.656696
0.656703
0.656711
0.656711
0.656719
0.656726
0.656734
0.656742
0.656742
0.656749
0.656757
0.656765
0.656772
0.656772
0.65678
0.656788
0.656796
0.656803
0.656803
0.656811
0.656819
0.656827
0.656834
0.656834
0.656842
0.65685
0.656858
0.656865
0.656865
0.656873
0.656881
0.656889
0.656897
0.656897
0.656904
0.656912
0.65692
0.656928
0.656928
0.656936
0.656943
0.656951
0.656959
0.656959
0.656967
0.656975
0.656983
0.65699
0.65699
0.656998
0.657006
0.657014
0.657022
0.657022
0.65703
0.657038
0.657045
0.657053
0.657053
0.657061
0.657069
0.657077
0.657085
0.657085
0.657093
0.657101
0.657109
0.657117
0.657117
0.657124
0.657132
0.65714
0.657148
0.657148
0.657156
0.657164
0.657172
0.65718
0.65718
0.657188
0.657196
0.657204
0.657212
0.657212
0.65722
0.657228
0.657236
0.657244
0.657244
0.657252
0.65726
0.657268
0.657276
0.657276
0.657284
0.657292
0.6573
0.657308
0.657308
0.657316
0.657324
0.657332
0.65734
0.65734
0.657348
0.657356
0.657364
0.657372
0.657372
0.65738
0.657388
0.657397
0.657405
0.657405
0.657413
0.657421
0.657429
0.657437
0.657437
0.657445
0.657453
0.657461
0.65747
0.65747
0.657478
0.657486
0.657494
0.657502
0.657502
0.65751
0.657518
0.657526
0.657535
0.657535
0.657543
0.657551
0.657559
0.657567
0.657567
0.657576
0.657584
0.657592
0.6576
0.6576
0.657608
0.657617
0.657625
0.657633
0.657633
0.657641
0.657649
0.657658
0.657666
0.657666
0.657674
0.657682
0.657691
0.657699
0.657699
0.657707
0.657715
0.657724
0.657732
0.657732
0.65774
0.657749
0.657757
0.657765
0.657765
0.657773
0.657782
0.65779
0.657798
0.657798
0.657807
0.657815
0.657823
0.657832
0.657832
0.65784
0.657848
0.657857
0.657865
0.657865
0.657873
0.657882
0.65789
0.657898
0.657898
0.657907
0.657915
0.657924
0.657932
0.657932
0.65794
0.657949
0.657957
0.657966
0.657966
0.657974
0.657982
0.657991
0.657999
0.657999
0.658008
0.658016
0.658025
0.658033
0.658033
0.658041
0.65805
0.658058
0.658067
0.658067
0.658075
0.658084
0.658092
0.658101
0.658101
0.658109
0.658118
0.658126
0.658135
0.658135
0.658143
0.658152
0.65816
0.658169
0.658169
0.658177
0.658186
0.658194
0.658203
0.658203
0.658211
0.65822
0.658229
0.658237
0.658237
0.658246
0.658254
0.658263
0.658271
0.658271
0.65828
0.658289
0.658297
0.658306
0.658306
0.658314
0.658323
0.658332
0.65834
0.65834
0.658349
0.658357
0.658366
0.658375
0.658375
0.658383
0.658392
0.658401
0.658409
0.658409
0.658418
0.658427
0.658435
0.658444
0.658444
0.658453
0.658461
0.65847
0.658479
0.658479
0.658487
0.658496
0.658505
0.658514
0.658514
0.658522
0.658531
0.65854
0.658548
0.658548
0.658557
0.658566
0.658575
0.658583
0.658583
0.658592
0.658601
0.65861
0.658618
0.658618
0.658627
0.658636
0.658645
0.658654
0.658654
0.658662
0.658671
0.65868
0.658689
0.658689
0.658698
0.658706
0.658715
0.658724
0.658724
0.658733
0.658742
0.658751
0.658759
0.658759
0.658768
0.658777
0.658786
0.658795
0.658795
0.658804
0.658813
0.658822
0.65883
0.65883
0.658839
0.658848
0.658857
0.658866
0.658866
0.658875
0.658884
0.658893
0.658902
0.658902
0.658911
0.65892
0.658928
0.658937
0.658937
0.658946
0.658955
0.658964
0.658973
0.658973
0.658982
0.658991
0.659
0.659009
0.659009
0.659018
0.659027
0.659036
0.659045
0.659045
0.659054
0.659063
0.659072
0.659081
0.659081
0.65909
0.659099
0.659108
0.659117
0.659117
0.659126
0.659135
0.659145
0.659154
0.659154
0.659163
0.659172
0.659181
0.65919
0.65919
0.659199
0.659208
0.659217
0.659226
0.659226
0.659235
0.659244
0.659254
0.659263
0.659263
0.659272
0.659281
0.65929
0.659299
0.659299
0.659308
0.659318
0.659327
0.659336
0.659336
0.659345
0.659354
0.659363
0.659373
0.659373
0.659382
0.659391
0.6594
0.659409
0.659409
0.659419
0.659428
0.659437
0.659446
0.659446
0.659455
0.659465
0.659474
0.659483
0.659483
0.659492
0.659502
0.659511
0.65952
0.65952
0.659529
0.659539
0.659548
0.659557
0.659557
0.659567
0.659576
0.659585
0.659594
0.659594
0.659604
0.659613
0.659622
0.659632
0.659632
0.659641
0.65965
0.65966
0.659669
0.659669
0.659678
0.659688
0.659697
0.659706
0.659706
0.659716
0.659725
0.659734
0.659744
0.659744
0.659753
0.659763
0.659772
0.659781
0.659781
0.659791
0.6598
0.65981
0.659819
0.659819
0.659828
0.659838
0.659847
0.659857
0.659857
0.659866
0.659876
0.659885
0.659895
0.659895
0.659904
0.659913
0.659923
0.659932
0.659932
0.659942
0.659951
0.659961
0.65997
0.65997
0.65998
0.659989
0.659999
0.660008
0.660008
0.660018
0.660028
0.660037
0.660047
0.660047
0.660056
0.660066
0.660075
0.660085
0.660085
0.660094
0.660104
0.660113
0.660123
0.660123
0.660133
0.660142
0.660152
0.660161
0.660161
0.660171
0.660181
0.66019
0.6602
0.6602
0.660209
0.660219
0.660229
0.660238
0.660238
0.660248
0.660258
0.660267
0.660277
0.660277
0.660287
0.660296
0.660306
0.660316
0.660316
0.660325
0.660335
0.660345
0.660354
0.660354
0.660364
0.660374
0.660384
0.660393
0.660393
0.660403
0.660413
0.660422
0.660432
0.660432
0.660442
0.660452
0.660461
0.660471
0.660471
0.660481
0.660491
0.660501
0.66051
0.66051
0.66052
0.66053
0.66054
0.660549
0.660549
0.660559
0.660569
0.660579
0.660589
0.660589
0.660599
0.660608
0.660618
0.660628
0.660628
0.660638
0.660648
0.660658
0.660667
0.660667
0.660677
0.660687
0.660697
0.660707
0.660707
0.660717
0.660727
0.660737
0.660746
0.660746
0.660756
0.660766
0.660776
0.660786
0.660786
0.660796
0.660806
0.660816
0.660826
0.660826
0.660836
0.660846
0.660856
0.660866
0.660866
0.660876
0.660886
0.660896
0.660906
0.660906
0.660916
0.660926
0.660936
0.660946
0.660946
0.660956
0.660966
0.660976
0.660986
0.660986
0.660996
0.661006
0.661016
0.661026
0.661026
0.661036
0.661046
0.661056
0.661066
0.661066
0.661076
0.661086
0.661096
0.661106
0.661106
0.661116
0.661126
0.661137
0.661147
0.661147
0.661157
0.661167
0.661177
0.661187
0.661187
0.661197
0.661207
0.661218
0.661228
0.661228
0.661238
0.661248
0.661258
0.661268
0.661268
0.661279
0.661289
0.661299
0.661309
0.661309
0.661319
0.661329
0.66134
0.66135
0.66135
0.66136
0.66137
0.66138
0.661391
0.661391
0.661401
0.661411
0.661421
0.661432
0.661432
0.661442
0.661452
0.661462
0.661473
0.661473
0.661483
0.661493
0.661504
0.661514
0.661514
0.661524
0.661534
0.661545
0.661555
0.661555
0.661565
0.661576
0.661586
0.661596
0.661596
0.661607
0.661617
0.661627
0.661638
0.661638
0.661648
0.661658
0.661669
0.661679
0.661679
0.66169
0.6617
0.66171
0.661721
0.661721
0.661731
0.661742
0.661752
0.661762
0.661762
0.661773
0.661783
0.661794
0.661804
0.661804
0.661814
0.661825
0.661835
0.661846
0.661846
0.661856
0.661867
0.661877
0.661888
0.661888
0.661898
0.661909
0.661919
0.66193
0.66193
0.66194
0.661951
0.661961
0.661972
0.661972
0.661982
0.661993
0.662003
0.662014
0.662014
0.662024
0.662035
0.662046
0.662056
0.662056
0.662067
0.662077
0.662088
0.662098
0.662098
0.662109
0.66212
0.66213
0.662141
0.662141
0.662151
0.662162
0.662173
0.662183
0.662183
0.662194
0.662204
0.662215
0.662226
0.662226
0.662236
0.662247
0.662258
0.662268
0.662268
0.662279
0.66229
0.6623
0.662311
0.662311
0.662322
0.662332
0.662343
0.662354
0.662354
0.662365
0.662375
0.662386
0.662397
0.662397
0.662407
0.662418
0.662429
0.66244
0.66244
0.66245
0.662461
0.662472
0.662483
0.662483
0.662494
0.662504
0.662515
0.662526
0.662526
0.662537
0.662547
0.662558
0.662569
0.662569
0.66258
0.662591
0.662602
0.662612
0.662612
0.662623
0.662634
0.662645
0.662656
0.662656
0.662667
0.662678
0.662688
0.662699
0.662699
0.66271
0.662721
0.662732
0.662743
0.662743
0.662754
0.662765
0.662776
0.662786
0.662786
0.662797
0.662808
0.662819
0.66283
0.66283
0.662841
0.662852
0.662863
0.662874
0.662874
0.662885
0.662896
0.662907
0.662918
0.662918
0.662929
0.66294
0.662951
0.662962
0.662962
0.662973
0.662984
0.662995
0.663006
0.663006
0.663017
0.663028
0.663039
0.66305
0.66305
0.663061
0.663072
0.663083
0.663094
0.663094
0.663105
0.663116
0.663128
0.663139
0.663139
0.66315
0.663161
0.663172
0.663183
0.663183
0.663194
0.663205
0.663216
0.663228
0.663228
0.663239
0.66325
0.663261
0.663272
0.663272
0.663283
0.663294
0.663306
0.663317
0.663317
0.663328
0.663339
0.66335
0.663362
0.663362
0.663373
0.663384
0.663395
0.663406
0.663406
0.663418
0.663429
0.66344
0.663451
0.663451
0.663463
0.663474
0.663485
0.663496
0.663496
0.663508
0.663519
0.66353
0.663541
0.663541
0.663553
0.663564
0.663575
0.663587
0.663587
0.663598
0.663609
0.663621
0.663632
0.663632
0.663643
0.663655
0.663666
0.663677
0.663677
0.663689
0.6637
0.663711
0.663723
0.663723
0.663734
0.663745
0.663757
0.663768
0.663768
0.66378
0.663791
0.663802
0.663814
0.663814
0.663825
0.663837
0.663848
0.66386
0.66386
0.663871
0.663882
0.663894
0.663905
0.663905
0.663917
0.663928
0.66394
0.663951
0.663951
0.663963
0.663974
0.663986
0.663997
0.663997