<?xml version="1.0"?>
<VTKFile type="UnstructuredGrid" version="0.1" byte_order="LittleEndian">
<UnstructuredGrid>
<Piece NumberOfPoints="5000" NumberOfCells="4000">
<PointData Scalars="Reaction 0">
<DataArray type="Float32" Name="Reaction 0" format="ascii">
0.278292
0.278292
0.278292
0.278292
0.278292
0.278292
0.278293
0.278293
0.278293
0.278293
0.278293
0.278293
0.278294
0.278294
0.278294
0.278294
0.278295
0.278295
0.278296
0.278296
0.278296
0.278297
0.278297
0.278298
0.278299
0.278299
0.278299
0.2783
0.278301
0.278302
0.278302
0.278302
0.278303
0.278304
0.278305
0.278305
0.278306
0.278307
0.278308
0.278309
0.278309
0.27831
0.278311
0.278312
0.278313
0.278313
0.278315
0.278316
0.278317
0.278318
0.278318
0.27832
0.278321
0.278323
0.278324
0.278324
0.278325
0.278327
0.278328
0.27833
0.27833
0.278332
0.278333
0.278335
0.278337
0.278337
0.278338
0.27834
0.278342
0.278344
0.278344
0.278346
0.278347
0.278349
0.278351
0.278351
0.278353
0.278355
0.278357
0.278359
0.278359
0.278362
0.278364
0.278366
0.278368
0.278368
0.27837
0.278373
0.278375
0.278377
0.278377
0.27838
0.278382
0.278385
0.278387
0.278387
0.27839
0.278392
0.278395
0.278397
0.278397
0.2784
0.278403
0.278405
0.278408
0.278408
0.278411
0.278414
0.278417
0.27842
0.27842
0.278422
0.278425
0.278428
0.278431
0.278431
0.278434
0.278437
0.278441
0.278444
0.278444
0.278447
0.27845
0.278453
0.278457
0.278457
0.27846
0.278463
0.278467
0.27847
0.27847
0.278473
0.278477
0.27848
0.278484
0.278484
0.278488
0.278491
0.278495
0.278498
0.278498
0.278502
0.278506
0.27851
0.278513
0.278513
0.278517
0.278521
0.278525
0.278529
0.278529
0.278533
0.278537
0.278541
0.278545
0.278545
0.278549
0.278553
0.278557
0.278562
0.278562
0.278566
0.27857
0.278574
0.278579
0.278579
0.278583
0.278588
0.278592
0.278596
0.278596
0.278601
0.278605
0.27861
0.278615
0.278615
0.278619
0.278624
0.278629
0.278633
0.278633
0.278638
0.278643
0.278648
0.278652
0.278652
0.278657
0.278662
0.278667
0.278672
0.278672
0.278677
0.278682
0.278687
0.278692
0.278692
0.278698
0.278703
0.278708
0.278713
0.278713
0.278719
0.278724
0.278729
0.278735
0.278735
0.27874
0.278745
0.278751
0.278756
0.278756
0.278762
0.278768
0.278773
0.278779
0.278779
0.278784
0.27879
0.278796
0.278802
0.278802
0.278807
0.278813
0.278819
0.278825
0.278825
0.278831
0.278837
0.278843
0.278849
0.278849
0.278855
0.278861
0.278867
0.278874
0.278874
0.27888
0.278886
0.278892
0.278899
0.278899
0.278905
0.278911
0.278918
0.278924
0.278924
0.278931
0.278937
0.278944
0.27895
0.27895
0.278957
0.278963
0.27897
0.278977
0.278977
0.278983
0.27899
0.278997
0.279004
0.279004
0.279011
0.279018
0.279024
0.279031
0.279031
0.279038
0.279045
0.279053
0.27906
0.27906
0.279067
0.279074
0.279081
0.279088
0.279088
0.279096
0.279103
0.27911
0.279117
0.279117
0.279125
0.279132
0.27914
0.279147
0.279147
0.279155
0.279162
0.27917
0.279177
0.279177
0.279185
0.279193
0.279201
0.279208
0.279208
0.279216
0.279224
0.279232
0.27924
0.27924
0.279248
0.279255
0.279263
0.279271
0.279271
0.279279
0.279288
0.279296
0.279304
0.279304
0.279312
0.27932
0.279328
0.279337
0.279337
0.279345
0.279353
0.279362
0.27937
0.27937
0.279379
0.279387
0.279396
0.279404
0.279404
0.279413
0.279421
0.27943
0.279439
0.279439
0.279447
0.279456
0.279465
0.279474
0.279474
0.279482
0.279491
0.2795
0.279509
0.279509
0.279518
0.279527
0.279536
0.279545
0.279545
0.279554
0.279563
0.279572
0.279582
0.279582
0.279591
0.2796
0.279609
0.279619
0.279619
0.279628
0.279637
0.279647
0.279656
0.279656
0.279666
0.279675
0.279685
0.279695
0.279695
0.279704
0.279714
0.279723
0.279733
0.279733
0.279743
0.279753
0.279763
0.279772
0.279772
0.279782
0.279792
0.279802
0.279812
0.279812
0.279822
0.279832
0.279842
0.279852
0.279852
0.279863
0.279873
0.279883
0.279893
0.279893
0.279903
0.279914
0.279924
0.279934
0.279934
0.279945
0.279955
0.279966
0.279976
0.279976
0.279987
0.279997
0.280008
0.280019
0.280019
0.280029
0.28004
0.280051
0.280062
0.280062
0.280072
0.280083
0.280094
0.280105
0.280105
0.280116
0.280127
0.280138
0.280149
0.280149
0.28016
0.280171
0.280182
0.280193
0.280193
0.280205
0.280216
0.280227
0.280238
0.280238
0.28025
0.280261
0.280272
0.280284
0.280284
0.280295
0.280307
0.280318
0.28033
0.28033
0.280341
0.280353
0.280365
0.280376
0.280376
0.280388
0.2804
0.280412
0.280423
0.280423
0.280435
0.280447
0.280459
0.280471
0.280471
0.280483
0.280495
0.280507
0.280519
0.280519
0.280531
0.280543
0.280556
0.280568
0.280568
0.28058
0.280592
0.280605
0.280617
0.280617
0.280629
0.280642
0.280654
0.280667
0.280667
0.280679
0.280692
0.280704
0.280717
0.280717
0.28073
0.280742
0.280755
0.280768
0.280768
0.280781
0.280793
0.280806
0.280819
0.280819
0.280832
0.280845
0.280858
0.280871
0.280871
0.280884
0.280897
0.28091
0.280923
0.280923
0.280936
0.28095
0.280963
0.280976
0.280976
0.280989
0.281003
0.281016
0.281029
0.281029
0.281043
0.281056
0.28107
0.281083
0.281083
0.281097
0.281111
0.281124
0.281138
0.281138
0.281151
0.281165
0.281179
0.281193
0.281193
0.281207
0.28122
0.281234
0.281248
0.281248
0.281262
0.281276
0.28129
0.281304
0.281304
0.281318
0.281332
0.281347
0.281361
0.281361
0.281375
0.281389
0.281404
0.281418
0.281418
0.281432
0.281447
0.281461
0.281475
0.281475
0.28149
0.281504
0.281519
0.281534
0.281534
0.281548
0.281563
0.281577
0.281592
0.281592
0.281607
0.281622
0.281636
0.281651
0.281651
0.281666
0.281681
0.281696
0.281711
0.281711
0.281726
0.281741
0.281756
0.281771
0.281771
0.281786
0.281801
0.281817
0.281832
0.281832
0.281847
0.281862
0.281878
0.281893
0.281893
0.281909
0.281924
0.281939
0.281955
0.281955
0.28197
0.281986
0.282002
0.282017
0.282017
0.282033
0.282049
0.282064
0.28208
0.28208
0.282096
0.282112
0.282128
0.282143
0.282143
0.282159
0.282175
0.282191
0.282207
0.282207
0.282223
0.282239
0.282256
0.282272
0.282272
0.282288
0.282304
0.28232
0.282337
0.282337
0.282353
0.282369
0.282386
0.282402
0.282402
0.282419
0.282435
0.282452
0.282468
0.282468
0.282485
0.282501
0.282518
0.282535
0.282535
0.282551
0.282568
0.282585
0.282602
0.282602
0.282618
0.282635
0.282652
0.282669
0.282669
0.282686
0.282703
0.28272
0.282737
0.282737
0.282754
0.282771
0.282789
0.282806
0.282806
0.282823
0.28284
0.282858
0.282875
0.282875
0.282892
0.28291
0.282927
0.282945
0.282945
0.282962
0.28298
0.282997
0.283015
0.283015
0.283032
0.28305
0.283068
0.283085
0.283085
0.283103
0.283121
0.283139
0.283157
0.283157
0.283174
0.283192
0.28321
0.283228
0.283228
0.283246
0.283264
0.283282
0.283301
0.283301
0.283319
0.283337
0.283355
0.283373
0.283373
0.283392
0.28341
0.283428
0.283447
0.283447
0.283465
0.283484
0.283502
0.283521
0.283521
0.283539
0.283558
0.283576
0.283595
0.283595
0.283614
0.283632
0.283651
0.28367
0.28367
0.283689
0.283707
0.283726
0.283745
0.283745
0.283764
0.283783
0.283802
0.283821
0.283821
0.28384
0.283859
0.283878
0.283898
0.283898
0.283917
0.283936
0.283955
0.283974
0.283974
0.283994
0.284013
0.284033
0.284052
0.284052
0.284071
0.284091
0.28411
0.28413
0.28413
0.28415
0.284169
0.284189
0.284209
0.284209
0.284228
0.284248
0.284268
0.284288
0.284288
0.284307
0.284327
0.284347
0.284367
0.284367
0.284387
0.284407
0.284427
0.284447
0.284447
0.284467
0.284488
0.284508
0.284528
0.284528
0.284548
0.284568
0.284589
0.284609
0.284609
0.284629
0.28465
0.28467
0.284691
0.284691
0.284711
0.284732
0.284752
0.284773
0.284773
0.284794
0.284814
0.284835
0.284856
0.284856
0.284876
0.284897
0.284918
0.284939
0.284939
0.28496
0.284981
0.285002
0.285023
0.285023
0.285044
0.285065
0.285086
0.285107
0.285107
0.285128
0.285149
0.285171
0.285192
0.285192
0.285213
0.285234
0.285256
0.285277
0.285277
0.285299
0.28532
0.285341
0.285363
0.285363
0.285385
0.285406
0.285428
0.285449
0.285449
0.285471
0.285493
0.285515
0.285536
0.285536
0.285558
0.28558
0.285602
0.285624
0.285624
0.285646
0.285668
0.28569
0.285712
0.285712
0.285734
0.285756
0.285778
0.2858
0.2858
0.285822
0.285845
0.285867
0.285889
0.285889
0.285911
0.285934
0.285956
0.285979
0.285979
0.286001
0.286024
0.286046
0.286069
0.286069
0.286091
0.286114
0.286137
0.286159
0.286159
0.286182
0.286205
0.286227
0.28625
0.28625
0.286273
0.286296
0.286319
0.286342
0.286342
0.286365
0.286388
0.286411
0.286434
0.286434
0.286457
0.28648
0.286503
0.286527
0.286527
0.28655
0.286573
0.286597
0.28662
0.28662
0.286643
0.286667
0.28669
0.286714
0.286714
0.286737
0.286761
0.286784
0.286808
0.286808
0.286831
0.286855
0.286879
0.286902
0.286902
0.286926
0.28695
0.286974
0.286998
0.286998
0.287022
0.287046
0.28707
0.287094
0.287094
0.287118
0.287142
0.287166
0.28719
0.28719
0.287214
0.287238
0.287262
0.287287
0.287287
0.287311
0.287335
0.28736
0.287384
0.287384
0.287408
0.287433
0.287457
0.287482
0.287482
0.287506
0.287531
0.287556
0.28758
0.28758
0.287605
0.28763
0.287654
0.287679
0.287679
0.287704
0.287729
0.287754
0.287779
0.287779
0.287803
0.287828
0.287853
0.287878
0.287878
0.287904
0.287929
0.287954
0.287979
0.287979
0.288004
0.288029
0.288055
0.28808
0.28808
0.288105
0.288131
0.288156
0.288181
0.288181
0.288207
0.288232
0.288258
0.288283
0.288283
0.288309
0.288335
0.28836
0.288386
0.288386
0.288412
0.288438
0.288463
0.288489
0.288489
0.288515
0.288541
0.288567
0.288593
0.288593
0.288619
0.288645
0.288671
0.288697
0.288697
0.288723
0.288749
0.288775
0.288801
0.288801
0.288828
0.288854
0.28888
0.288907
0.288907
0.288933
0.288959
0.288986
0.289012
0.289012
0.289039
0.289065
0.289092
0.289118
0.289118
0.289145
0.289172
0.289198
0.289225
0.289225
0.289252
0.289279
0.289306
0.289332
0.289332
0.289359
0.289386
0.289413
0.28944
0.28944
0.289467
0.289494
0.289521
0.289548
0.289548
0.289576
0.289603
0.28963
0.289657
0.289657
0.289685
0.289712
0.289739
0.289767
0.289767
0.289794
0.289821
0.289849
0.289876
0.289876
0.289904
0.289931
0.289959
0.289987
0.289987
0.290014
0.290042
0.29007
0.290098
0.290098
0.290125
0.290153
0.290181
0.290209
0.290209
0.290237
0.290265
0.290293
0.290321
0.290321
0.290349
0.290377
0.290405
0.290433
0.290433
0.290462
0.29049
0.290518
0.290546
0.290546
0.290575
0.290603
0.290631
0.29066
0.29066
0.290688
0.290717
0.290745
0.290774
0.290774
0.290802
0.290831
0.29086
0.290888
0.290888
0.290917
0.290946
0.290974
0.291003
0.291003
0.291032
0.291061
0.29109
0.291119
0.291119
0.291148
0.291177
0.291206
0.291235
0.291235
0.291264
0.291293
0.291322
0.291351
0.291351
0.291381
0.29141
0.291439
0.291469
0.291469
0.291498
0.291527
0.291557
0.291586
0.291586
0.291616
0.291645
0.291675
0.291704
0.291704
0.291734
0.291764
0.291793
0.291823
0.291823
0.291853
0.291883
0.291912
0.291942
0.291942
0.291972
0.292002
0.292032
0.292062
0.292062
0.292092
0.292122
0.292152
0.292182
0.292182
0.292212
0.292242
0.292273
0.292303
0.292303
0.292333
0.292363
0.292394
0.292424
0.292424
0.292455
0.292485
0.292515
0.292546
0.292546
0.292576
0.292607
0.292638
0.292668
0.292668
0.292699
0.29273
0.29276
0.292791
0.292791
0.292822
0.292853
0.292883
0.292914
0.292914
0.292945
0.292976
0.293007
0.293038
0.293038
0.293069
0.2931
0.293131
0.293163
0.293163
0.293194
0.293225
0.293256
0.293287
0.293287
0.293319
0.29335
0.293381
0.293413
0.293413
0.293444
0.293476
0.293507
0.293539
0.293539
0.29357
0.293602
0.293633
0.293665
0.293665
0.293697
0.293729
0.29376
0.293792
0.293792
0.293824
0.293856
0.293888
0.29392
0.29392
0.293952
0.293984
0.294016
0.294048
0.294048
0.29408
0.294112
0.294144
0.294176
0.294176
0.294208
0.294241
0.294273
0.294305
0.294305
0.294337
0.29437
0.294402
0.294435
0.294435
0.294467
0.2945
0.294532
0.294565
0.294565
0.294597
0.29463
0.294663
0.294695
0.294695
0.294728
0.294761
0.294794
0.294826
0.294826
0.294859
0.294892
0.294925
0.294958
0.294958
0.294991
0.295024
0.295057
0.29509
0.29509
0.295123
0.295156
0.29519
0.295223
0.295223
0.295256
0.295289
0.295323
0.295356
0.295356
0.295389
0.295423
0.295456
0.29549
0.29549
0.295523
0.295557
0.29559
0.295624
0.295624
0.295657
0.295691
0.295725
0.295758
0.295758
0.295792
0.295826
0.29586
0.295894
0.295894
0.295928
0.295961
0.295995
0.296029
0.296029
0.296063
0.296097
0.296132
0.296166
0.296166
0.2962
0.296234
0.296268
0.296302
0.296302
0.296337
0.296371
0.296405
0.29644
0.29644
0.296474
0.296509
0.296543
0.296578
0.296578
0.296612
0.296647
0.296681
0.296716
0.296716
0.29675
0.296785
0.29682
0.296855
0.296855
0.296889
0.296924
0.296959
0.296994
0.296994
0.297029
0.297064
0.297099
0.297134
0.297134
0.297169
0.297204
0.297239
0.297274
0.297274
0.297309
0.297345
0.29738
0.297415
0.297415
0.29745
0.297486
0.297521
0.297557
0.297557
0.297592
0.297627
0.297663
0.297699
0.297699
0.297734
0.29777
0.297805
0.297841
0.297841
0.297877
0.297912
0.297948
0.297984
0.297984
0.29802
0.298056
0.298091
0.298127
0.298127
0.298163
0.298199
0.298235
0.298271
0.298271
0.298307
0.298344
0.29838
0.298416
0.298416
0.298452
0.298488
0.298525
0.298561
0.298561
0.298597
0.298634
0.29867
0.298706
0.298706
0.298743
0.298779
0.298816
0.298852
0.298852
0.298889
0.298926
0.298962
0.298999
0.298999
0.299036
0.299073
0.299109
0.299146
0.299146
0.299183
0.29922
0.299257
0.299294
0.299294
0.299331
0.299368
0.299405
0.299442
0.299442
0.299479
0.299516
0.299553
0.29959
0.29959
0.299628
0.299665
0.299702
0.29974
0.29974
0.299777
0.299814
0.299852
0.299889
0.299889
0.299927
0.299964
0.300002
0.300039
0.300039
0.300077
0.300115
0.300152
0.30019
0.30019
0.300228
0.300266
0.300303
0.300341
0.300341
0.300379
0.300417
0.300455
0.300493
0.300493
0.300531
0.300569
0.300607
0.300645
0.300645
0.300683
0.300721
0.30076
0.300798
0.300798
0.300836
0.300874
0.300913
0.300951
0.300951
0.30099
0.301028
0.301066
0.301105
0.301105
0.301143
0.301182
0.301221
0.301259
0.301259
0.301298
0.301336
0.301375
0.301414
0.301414
0.301453
0.301492
0.30153
0.301569
0.301569
0.301608
0.301647
0.301686
0.301725
0.301725
0.301764
0.301803
0.301842
0.301881
0.301881
0.301921
0.30196
0.301999
0.302038
0.302038
0.302077
0.302117
0.302156
0.302196
0.302196
0.302235
0.302274
0.302314
0.302353
0.302353
0.302393
0.302433
0.302472
0.302512
0.302512
0.302551
0.302591
0.302631
0.302671
0.302671
0.30271
0.30275
0.30279
0.30283
0.30283
0.30287
0.30291
0.30295
0.30299
0.30299
0.30303
0.30307
0.30311
0.30315
0.30315
0.303191
0.303231
0.303271
0.303311
0.303311
0.303352
0.303392
0.303432
0.303473
0.303473
0.303513
0.303554
0.303594
0.303635
0.303635
0.303675
0.303716
0.303757
0.303797
0.303797
0.303838
0.303879
0.303919
0.30396
0.30396
0.304001
0.304042
0.304083
0.304124
0.304124
0.304165
0.304206
0.304247
0.304288
0.304288
0.304329
0.30437
0.304411
0.304452
0.304452
0.304493
0.304535
0.304576
0.304617
0.304617
0.304659
0.3047
0.304741
0.304783
0.304783
0.304824
0.304866
0.304907
0.304949
0.304949
0.30499
0.305032
0.305074
0.305115
0.305115
0.305157
0.305199
0.305241
0.305282
0.305282
0.305324
0.305366
0.305408
0.30545
0.30545
0.305492
0.305534
0.305576
0.305618
0.305618
0.30566
0.305702
0.305744
0.305787
0.305787
0.305829
0.305871
0.305913
0.305956
0.305956
0.305998
0.306041
0.306083
0.306125
0.306125
0.306168
0.30621
0.306253
0.306296
0.306296
0.306338
0.306381
0.306423
0.306466
0.306466
0.306509
0.306552
0.306595
0.306637
0.306637
0.30668
0.306723
0.306766
0.306809
0.306809
0.306852
0.306895
0.306938
0.306981
0.306981
0.307024
0.307067
0.307111
0.307154
0.307154
0.307197
0.30724
0.307284
0.307327
0.307327
0.30737
0.307414
0.307457
0.307501
0.307501
0.307544
0.307588
0.307631
0.307675
0.307675
0.307719
0.307762
0.307806
0.30785
0.30785
0.307893
0.307937
0.307981
0.308025
0.308025
0.308069
0.308113
0.308157
0.308201
0.308201
0.308245
0.308289
0.308333
0.308377
0.308377
0.308421
0.308465
0.308509
0.308554
0.308554
0.308598
0.308642
0.308687
0.308731
0.308731
0.308775
0.30882
0.308864
0.308909
0.308909
0.308953
0.308998
0.309042
0.309087
0.309087
0.309132
0.309176
0.309221
0.309266
0.309266
0.309311
0.309355
0.3094
0.309445
0.309445
0.30949
0.309535
0.30958
0.309625
0.309625
0.30967
0.309715
0.30976
0.309805
0.309805
0.30985
0.309896
0.309941
0.309986
0.309986
0.310031
0.310077
0.310122
0.310167
0.310167
0.310213
0.310258
0.310304
0.310349
0.310349
0.310395
0.31044
0.310486
0.310531
0.310531
0.310577
0.310623
0.310669
0.310714
0.310714
0.31076
0.310806
0.310852
0.310898
0.310898
0.310944
0.31099
0.311036
0.311082
0.311082
0.311128
0.311174
0.31122
0.311266
0.311266
0.311312
0.311358
0.311405
0.311451
0.311451
0.311497
0.311543
0.31159
0.311636
0.311636
0.311683
0.311729
0.311776
0.311822
0.311822
0.311869
0.311915
0.311962
0.312009
0.312009
0.312055
0.312102
0.312149
0.312195
0.312195
0.312242
0.312289
0.312336
0.312383
0.312383
0.31243
0.312477
0.312524
0.312571
0.312571
0.312618
0.312665
0.312712
0.312759
0.312759
0.312806
0.312854
0.312901
0.312948
0.312948
0.312995
0.313043
0.31309
0.313138
0.313138
0.313185
0.313232
0.31328
0.313328
0.313328
0.313375
0.313423
0.31347
0.313518
0.313518
0.313566
0.313613
0.313661
0.313709
0.313709
0.313757
0.313805
0.313852
0.3139
0.3139
0.313948
0.313996
0.314044
0.314092
0.314092
0.31414
0.314189
0.314237
0.314285
0.314285
0.314333
0.314381
0.31443
0.314478
0.314478
0.314526
0.314574
0.314623
0.314671
0.314671
0.31472
0.314768
0.314817
0.314865
0.314865
0.314914
0.314962
0.315011
0.31506
0.31506
0.315108
0.315157
0.315206
0.315255
0.315255
0.315304
0.315352
0.315401
0.31545
0.31545
0.315499
0.315548
0.315597
0.315646
0.315646
0.315695
0.315744
0.315794
0.315843
0.315843
0.315892
0.315941
0.315991
0.31604
0.31604
0.316089
0.316139
0.316188
0.316237
0.316237
0.316287
0.316336
0.316386
0.316435
0.316435
0.316485
0.316535
0.316584
0.316634
0.316634
0.316684
0.316733
0.316783
0.316833
0.316833
0.316883
0.316933
0.316983
0.317032
0.317032
0.317082
0.317132
0.317182
0.317233
0.317233
0.317283
0.317333
0.317383
0.317433
0.317433
0.317483
0.317534
0.317584
0.317634
0.317634
0.317684
0.317735
0.317785
0.317836
0.317836
0.317886
0.317937
0.317987
0.318038
0.318038
0.318088
0.318139
0.31819
0.31824
0.31824
0.318291
0.318342
0.318393
0.318443
0.318443
0.318494
0.318545
0.318596
0.318647
0.318647
0.318698
0.318749
0.3188
0.318851
0.318851
0.318902
0.318953
0.319004
0.319056
0.319056
0.319107
0.319158
0.319209
0.319261
0.319261
0.319312
0.319363
0.319415
0.319466
0.319466
0.319518
0.319569
0.319621
0.319672
0.319672
0.319724
0.319775
0.319827
0.319879
0.319879
0.319931
0.319982
0.320034
0.320086
0.320086
0.320138
0.32019
0.320242
0.320293
0.320293
0.320345
0.320397
0.320449
0.320502
0.320502
0.320554
0.320606
0.320658
0.32071
0.32071
0.320762
0.320815
0.320867
0.320919
0.320919
0.320972
0.321024
0.321076
0.321129
0.321129
0.321181
0.321234
0.321286
0.321339
0.321339
0.321391
0.321444
0.321497
0.321549
0.321549
0.321602
0.321655
0.321708
0.321761
0.321761
0.321813
0.321866
0.321919
0.321972
0.321972
0.322025
0.322078
0.322131
0.322184
0.322184
0.322237
0.32229
0.322344
0.322397
0.322397
0.32245
0.322503
0.322557
0.32261
0.32261
0.322663
0.322717
0.32277
0.322824
0.322824
0.322877
0.322931
0.322984
0.323038
0.323038
0.323091
0.323145
0.323199
0.323252
0.323252
0.323306
0.32336
0.323413
0.323467
0.323467
0.323521
0.323575
0.323629
0.323683
0.323683
0.323737
0.323791
0.323845
0.323899
0.323899
0.323953
0.324007
0.324061
0.324116
0.324116
0.32417
0.324224
0.324278
0.324333
0.324333
0.324387
0.324441
0.324496
0.32455
0.32455
0.324605
0.324659
0.324714
0.324768
0.324768
0.324823
0.324878
0.324932
0.324987
0.324987
0.325042
0.325096
0.325151
0.325206
0.325206
0.325261
0.325316
0.325371
0.325426
0.325426
0.325481
0.325536
0.325591
0.325646
0.325646
0.325701
0.325756
0.325811
0.325866
0.325866
0.325921
0.325977
0.326032
0.326087
0.326087
0.326143
0.326198
0.326253
0.326309
0.326309
0.326364
0.32642
0.326475
0.326531
0.326531
0.326587
0.326642
0.326698
0.326754
0.326754
0.326809
0.326865
0.326921
0.326977
0.326977
0.327032
0.327088
0.327144
0.3272
0.3272
0.327256
0.327312
0.327368
0.327424
0.327424
0.32748
0.327536
0.327593
0.327649
0.327649
0.327705
0.327761
0.327818
0.327874
0.327874
0.32793
0.327987
0.328043
0.328099
0.328099
0.328156
0.328212
0.328269
0.328325
0.328325
0.328382
0.328439
0.328495
0.328552
0.328552
0.328609
0.328665
0.328722
0.328779
0.328779
0.328836
0.328893
0.32895
0.329007
0.329007
0.329064
0.329121
0.329178
0.329235
0.329235
0.329292
0.329349
0.329406
0.329463
0.329463
0.32952
0.329578
0.329635
0.329692
0.329692
0.32975
0.329807
0.329864
0.329922
0.329922
0.329979
0.330037
0.330094
0.330152
0.330152
0.330209
0.330267
0.330325
0.330382
0.330382
0.33044
0.330498
0.330555
0.330613
0.330613
0.330671
0.330729
0.330787
0.330845
0.330845
0.330903
0.330961
0.331019
0.331077
0.331077
0.331135
0.331193
0.331251
0.331309
0.331309
0.331367
0.331426
0.331484
0.331542
0.331542
0.331601
0.331659
0.331717
0.331776
0.331776
0.331834
0.331893
0.331951
0.33201
0.33201
0.332068
0.332127
0.332186
0.332244
0.332244
0.332303
0.332362
0.33242
0.332479
0.332479
0.332538
0.332597
0.332656
0.332715
0.332715
0.332774
0.332833
0.332892
0.332951
0.332951
0.33301
0.333069
0.333128
0.333187
0.333187
0.333246
0.333305
0.333365
0.333424
0.333424
0.333483
0.333543
0.333602
0.333661
0.333661
0.333721
0.33378
0.33384
0.333899
0.333899
0.333959
0.334018
0.334078
0.334138
0.334138
0.334197
0.334257
0.334317
0.334377
0.334377
0.334436
0.334496
0.334556
0.334616
0.334616
0.334676
0.334736
0.334796
0.334856
0.334856
0.334916
0.334976
0.335036
0.335096
0.335096
0.335157
0.335217
0.335277
0.335337
0.335337
0.335398
0.335458
0.335518
0.335579
0.335579
0.335639
0.335699
0.33576
0.33582
0.33582
0.335881
0.335942
0.336002
0.336063
0.336063
0.336124
0.336184
0.336245
0.336306
0.336306
0.336366
0.336427
0.336488
0.336549
0.336549
0.33661
0.336671
0.336732
0.336793
0.336793
0.336854
0.336915
0.336976
0.337037
0.337037
0.337098
0.33716
0.337221
0.337282
0.337282
0.337343
0.337405
0.337466
0.337527
0.337527
0.337589
0.33765
0.337712
0.337773
0.337773
0.337835
0.337896
0.337958
0.338019
0.338019
0.338081
0.338143
0.338204
0.338266
0.338266
0.338328
0.33839
0.338452
0.338513
0.338513
0.338575
0.338637
0.338699
0.338761
0.338761
0.338823
0.338885
0.338947
0.33901
0.33901
0.339072
0.339134
0.339196
0.339258
0.339258
0.339321
0.339383
0.339445
0.339507
0.339507
0.33957
0.339632
0.339695
0.339757
0.339757
0.33982
0.339882
0.339945
0.340007
0.340007
0.34007
0.340133
0.340195
0.340258
0.340258
0.340321
0.340384
0.340446
0.340509
0.340509
0.340572
0.340635
0.340698
0.340761
0.340761
0.340824
0.340887
0.34095
0.341013
0.341013
0.341076
0.341139
0.341203
0.341266
0.341266
0.341329
0.341392
0.341456
0.341519
0.341519
0.341582
0.341646
0.341709
0.341773
0.341773
0.341836
0.3419
0.341963
0.342027
0.342027
0.34209
0.342154
0.342218
0.342281
0.342281
0.342345
0.342409
0.342473
0.342536
0.342536
0.3426
0.342664
0.342728
0.342792
0.342792
0.342856
0.34292
0.342984
0.343048
0.343048
0.343112
0.343176
0.34324
0.343305
0.343305
0.343369
0.343433
0.343497
0.343562
0.343562
0.343626
0.34369
0.343755
0.343819
0.343819
0.343884
0.343948
0.344013
0.344077
0.344077
0.344142
0.344206
0.344271
0.344336
0.344336
0.3444
0.344465
0.34453
0.344595
0.344595
0.34466
0.344724
0.344789
0.344854
0.344854
0.344919
0.344984
0.345049
0.345114
0.345114
0.345179
0.345244
0.345309
0.345375
0.345375
0.34544
0.345505
0.34557
0.345636
0.345636
0.345701
0.345766
0.345832
0.345897
0.345897
0.345962
0.346028
0.346093
0.346159
0.346159
0.346224
0.34629
0.346356
0.346421
0.346421
0.346487
0.346553
0.346618
0.346684
0.346684
0.34675
0.346816
0.346882
0.346948
0.346948
0.347013
0.347079
0.347145
0.347211
0.347211
0.347277
0.347343
0.34741
0.347476
0.347476
0.347542
0.347608
0.347674
0.347741
0.347741
0.347807
0.347873
0.347939
0.348006
0.348006
0.348072
0.348139
0.348205
0.348272
0.348272
0.348338
0.348405
0.348471
0.348538
0.348538
0.348605
0.348671
0.348738
0.348805
0.348805
0.348871
0.348938
0.349005
0.349072
0.349072
0.349139
0.349206
0.349273
0.34934
0.34934
0.349407
0.349474
0.349541
0.349608
0.349608
0.349675
0.349742
0.349809
0.349877
0.349877
0.349944
0.350011
0.350078
0.350146
0.350146
0.350213
0.35028
0.350348
0.350415
0.350415
0.350483
0.35055
0.350618
0.350685
0.350685
0.350753
0.350821
0.350888
0.350956
0.350956
0.351024
0.351092
0.351159
0.351227
0.351227
0.351295
0.351363
0.351431
0.351499
0.351499
0.351567
0.351635
0.351703
0.351771
0.351771
0.351839
0.351907
0.351975
0.352043
0.352043
0.352112
0.35218
0.352248
0.352316
0.352316
0.352385
0.352453
0.352522
0.35259
0.35259
0.352658
0.352727
0.352795
0.352864
0.352864
0.352932
0.353001
0.35307
0.353138
0.353138
0.353207
0.353276
0.353345
0.353413
0.353413
0.353482
0.353551
0.35362
0.353689
0.353689
0.353758
0.353827
0.353896
0.353965
0.353965
0.354034
0.354103
0.354172
0.354241
0.354241
0.35431
0.354379
0.354449
0.354518
0.354518
0.354587
0.354657
0.354726
0.354795
0.354795
0.354865
0.354934
0.355004
0.355073
0.355073
0.355143
0.355212
0.355282
0.355351
0.355351
0.355421
0.355491
0.355561
0.35563
0.35563
0.3557
0.35577
0.35584
0.35591
0.35591
0.355979
0.356049
0.356119
0.356189
0.356189
0.356259
0.356329
0.356399
0.35647
0.35647
0.35654
0.35661
0.35668
0.35675
0.35675
0.35682
0.356891
0.356961
0.357031
0.357031
0.357102
0.357172
0.357243
0.357313
0.357313
0.357384
0.357454
0.357525
0.357595
0.357595
0.357666
0.357736
0.357807
0.357878
0.357878
0.357949
0.358019
0.35809
0.358161
0.358161
0.358232
0.358303
0.358374
0.358445
0.358445
0.358515
0.358586
0.358658
0.358729
0.358729
0.3588
0.358871
0.358942
0.359013
0.359013
0.359084
0.359156
0.359227
0.359298
0.359298
0.359369
0.359441
0.359512
0.359584
0.359584
0.359655
0.359727
0.359798
0.35987
0.35987
0.359941
0.360013
0.360084
0.360156
0.360156
0.360228
0.360299
0.360371
0.360443
0.360443
0.360515
0.360587
0.360658
0.36073
0.36073
0.360802
0.360874
0.360946
0.361018
0.361018
0.36109
0.361162
0.361234
0.361307
0.361307
0.361379
0.361451
0.361523
0.361595
0.361595
0.361668
0.36174
0.361812
0.361885
0.361885
0.361957
0.362029
0.362102
0.362174
0.362174
0.362247
0.362319
0.362392
0.362465
0.362465
0.362537
0.36261
0.362683
0.362755
0.362755
0.362828
0.362901
0.362974
0.363047
0.363047
0.363119
0.363192
0.363265
0.363338
0.363338
0.363411
0.363484
0.363557
0.36363
0.36363
0.363703
0.363777
0.36385
0.363923
0.363923
0.363996
0.364069
0.364143
0.364216
0.364216
0.364289
0.364363
0.364436
0.36451
0.36451
0.364583
0.364657
0.36473
0.364804
0.364804
0.364877
0.364951
0.365025
0.365098
0.365098
0.365172
0.365246
0.365319
0.365393
0.365393
0.365467
0.365541
0.365615
0.365689
0.365689
0.365763
0.365837
0.365911
0.365985
0.365985
0.366059
0.366133
0.366207
0.366281
0.366281
0.366355
0.366429
0.366504
0.366578
0.366578
0.366652
0.366726
0.366801
0.366875
0.366875
0.36695
0.367024
0.367098
0.367173
0.367173
0.367248
0.367322
0.367397
0.367471
0.367471
0.367546
0.367621
0.367695
0.36777
0.36777
0.367845
0.36792
0.367994
0.368069
0.368069
0.368144
0.368219
0.368294
0.368369
0.368369
0.368444
0.368519
0.368594
0.368669
0.368669
0.368744
0.368819
0.368895
0.36897
0.36897
0.369045
0.36912
0.369196
0.369271
0.369271
0.369346
0.369422
0.369497
0.369572
0.369572
0.369648
0.369723
0.369799
0.369875
0.369875
0.36995
0.370026
0.370101
0.370177
0.370177
0.370253
0.370329
0.370404
0.37048
0.37048
0.370556
0.370632
0.370708
0.370784
0.370784
0.370859
0.370935
0.371011
0.371087
0.371087
0.371164
0.37124
0.371316
0.371392
0.371392
0.371468
0.371544
0.37162
0.371697
0.371697
0.371773
0.371849
0.371926
0.372002
0.372002
0.372078
0.372155
0.372231
0.372308
0.372308
0.372384
0.372461
0.372538
0.372614
0.372614
0.372691
0.372767
0.372844
0.372921
0.372921
0.372998
0.373074
0.373151
0.373228
0.373228
0.373305
0.373382
0.373459
0.373536
0.373536
0.373613
0.37369
0.373767
0.373844
0.373844
0.373921
0.373998
0.374075
0.374153
0.374153
0.37423
0.374307
0.374384
0.374462
0.374462
0.374539
0.374616
0.374694
0.374771
0.374771
0.374849
0.374926
0.375004
0.375081
0.375081
0.375159
0.375236
0.375314
0.375392
0.375392
0.375469
0.375547
0.375625
0.375703
0.375703
0.37578
0.375858
0.375936
0.376014
0.376014
0.376092
0.37617
0.376248
0.376326
0.376326
0.376404
0.376482
0.37656
0.376638
0.376638
0.376716
0.376795
0.376873
0.376951
0.376951
0.377029
0.377108
0.377186
0.377264
0.377264
0.377343
0.377421
0.3775
0.377578
0.377578
0.377657
0.377735
0.377814
0.377892
0.377892
0.377971
0.37805
0.378128
0.378207
0.378207
0.378286
0.378364
0.378443
0.378522
0.378522
0.378601
0.37868
0.378759
0.378838
0.378838
0.378917
0.378996
0.379075
0.379154
0.379154
0.379233
0.379312
0.379391
0.37947
0.37947
0.379549
0.379629
0.379708
0.379787
0.379787
0.379867
0.379946
0.380025
0.380105
0.380105
0.380184
0.380264
0.380343
0.380423
0.380423
0.380502
0.380582
0.380661
0.380741
0.380741
0.380821
0.3809
0.38098
0.38106
0.38106
0.38114
0.381219
0.381299
0.381379
0.381379
0.381459
0.381539
0.381619
0.381699
0.381699
0.381779
0.381859
0.381939
0.382019
0.382019
0.382099
0.382179
0.38226
0.38234
0.38234
0.38242
0.3825
0.382581
0.382661
0.382661
0.382741
0.382822
0.382902
0.382983
0.382983
0.383063
0.383144
0.383224
0.383305
0.383305
0.383385
0.383466
0.383547
0.383627
0.383627
0.383708
0.383789
0.383869
0.38395
0.38395
0.384031
0.384112
0.384193
0.384274
0.384274
0.384355
0.384436
0.384517
0.384598
0.384598
0.384679
0.38476
0.384841
0.384922
0.384922
0.385003
0.385084
0.385166
0.385247
0.385247
0.385328
0.385409
0.385491
0.385572
0.385572
0.385653
0.385735
0.385816
0.385898
0.385898
0.385979
0.386061
0.386142
0.386224
0.386224
0.386306
0.386387
0.386469
0.386551
0.386551
0.386632
0.386714
0.386796
0.386878
0.386878
0.38696
0.387042
0.387124
0.387205
0.387205
0.387287
0.387369
0.387451
0.387534
0.387534
0.387616
0.387698
0.38778
0.387862
0.387862
0.387944
0.388026
0.388109
0.388191
0.388191
0.388273
0.388356
0.388438
0.38852
0.38852
0.388603
0.388685
0.388768
0.38885
0.38885
0.388933
0.389015
0.389098
0.389181
0.389181
0.389263
0.389346
0.389429
0.389511
0.389511
0.389594
0.389677
0.38976
0.389843
0.389843
0.389926
0.390008
0.390091
0.390174
0.390174
0.390257
0.39034
0.390423
0.390507
0.390507
0.39059
0.390673
0.390756
0.390839
0.390839
0.390922
0.391006
0.391089
0.391172
0.391172
0.391256
0.391339
0.391422
0.391506
0.391506
0.391589
0.391673
0.391756
0.39184
0.39184
0.391923
0.392007
0.392091
0.392174
0.392174
0.392258
0.392342
0.392425
0.392509
0.392509
0.392593
0.392677
0.392761
0.392844
0.392844
0.392928
0.393012
0.393096
0.39318
0.39318
0.393264
0.393348
0.393432
0.393517
0.393517