<?xml version="1.0"?>
<VTKFile type="UnstructuredGrid" version="0.1" byte_order="LittleEndian">
<UnstructuredGrid>
<Piece NumberOfPoints="5000" NumberOfCells="4000">
<PointData Scalars="Reaction 0">
<DataArray type="Float32" Name="Reaction 0" format="ascii">
0.657111
0.657111
0.657111
0.657111
0.657111
0.657111
0.657111
0.657111
0.657111
0.657111
0.657111
0.657111
0.657111
0.657111
0.657111
0.657111
0.657111
0.657111
0.657111
0.657111
0.657111
0.657111
0.657111
0.657111
0.657112
0.657112
0.657112
0.657112
0.657112
0.657112
0.657112
0.657112
0.657112
0.657112
0.657112
0.657112
0.657112
0.657113
0.657113
0.657113
0.657113
0.657113
0.657113
0.657113
0.657113
0.657113
0.657114
0.657114
0.657114
0.657114
0.657114
0.657114
0.657114
0.657114
0.657115
0.657115
0.657115
0.657115
0.657115
0.657115
0.657115
0.657116
0.657116
0.657116
0.657116
0.657116
0.657116
0.657117
0.657117
0.657117
0.657117
0.657117
0.657118
0.657118
0.657118
0.657118
0.657118
0.657119
0.657119
0.657119
0.657119
0.657119
0.65712
0.65712
0.65712
0.65712
0.65712
0.657121
0.657121
0.657121
0.657121
0.657122
0.657122
0.657122
0.657122
0.657122
0.657123
0.657123
0.657123
0.657124
0.657124
0.657124
0.657124
0.657125
0.657125
0.657125
0.657125
0.657126
0.657126
0.657127
0.657127
0.657127
0.657127
0.657128
0.657128
0.657128
0.657128
0.657129
0.657129
0.65713
0.65713
0.65713
0.65713
0.657131
0.657131
0.657131
0.657132
0.657132
0.657132
0.657133
0.657133
0.657133
0.657134
0.657134
0.657135
0.657135
0.657135
0.657135
0.657136
0.657136
0.657136
0.657137
0.657137
0.657138
0.657138
0.657138
0.657139
0.657139
0.65714
0.65714
0.65714
0.657141
0.657141
0.657142
0.657142
0.657142
0.657143
0.657143
0.657144
0.657144
0.657144
0.657145
0.657145
0.657146
0.657146
0.657146
0.657147
0.657147
0.657148
0.657148
0.657148
0.657149
0.65715
0.65715
0.657151
0.657151
0.657151
0.657152
0.657152
0.657153
0.657153
0.657154
0.657154
0.657155
0.657155
0.657155
0.657156
0.657157
0.657157
0.657158
0.657158
0.657158
0.657159
0.65716
0.65716
0.65716
0.657161
0.657162
0.657162
0.657163
0.657163
0.657164
0.657164
0.657165
0.657166
0.657166
0.657166
0.657167
0.657168
0.657168
0.657168
0.657169
0.65717
0.65717
0.657171
0.657171
0.657172
0.657172
0.657173
0.657174
0.657174
0.657175
0.657175
0.657176
0.657177
0.657177
0.657178
0.657178
0.657179
0.65718
0.65718
0.657181
0.657181
0.657182
0.657183
0.657183
0.657184
0.657184
0.657185
0.657186
0.657186
0.657187
0.657188
0.657188
0.657189
0.657189
0.65719
0.657191
0.657192
0.657192
0.657192
0.657193
0.657194
0.657195
0.657196
0.657196
0.657196
0.657197
0.657198
0.657199
0.657199
0.6572
0.657201
0.657202
0.657202
0.657202
0.657203
0.657204
0.657205
0.657206
0.657206
0.657207
0.657208
0.657209
0.657209
0.657209
0.65721
0.657211
0.657212
0.657213
0.657213
0.657214
0.657215
0.657216
0.657217
0.657217
0.657218
0.657219
0.65722
0.657221
0.657221
0.657221
0.657222
0.657223
0.657224
0.657224
0.657225
0.657226
0.657227
0.657228
0.657228
0.657229
0.65723
0.657231
0.657232
0.657232
0.657233
0.657234
0.657235
0.657236
0.657236
0.657237
0.657238
0.657239
0.65724
0.65724
0.657241
0.657242
0.657243
0.657244
0.657244
0.657246
0.657247
0.657248
0.657249
0.657249
0.65725
0.657251
0.657252
0.657253
0.657253
0.657254
0.657255
0.657256
0.657257
0.657257
0.657258
0.65726
0.657261
0.657262
0.657262
0.657263
0.657264
0.657265
0.657266
0.657266
0.657267
0.657268
0.65727
0.657271
0.657271
0.657272
0.657273
0.657274
0.657275
0.657275
0.657277
0.657278
0.657279
0.65728
0.65728
0.657281
0.657282
0.657284
0.657285
0.657285
0.657286
0.657287
0.657288
0.65729
0.65729
0.657291
0.657292
0.657293
0.657294
0.657294
0.657296
0.657297
0.657298
0.657299
0.657299
0.657301
0.657302
0.657303
0.657304
0.657304
0.657306
0.657307
0.657308
0.657309
0.657309
0.657311
0.657312
0.657313
0.657315
0.657315
0.657316
0.657317
0.657318
0.65732
0.65732
0.657321
0.657322
0.657324
0.657325
0.657325
0.657326
0.657328
0.657329
0.65733
0.65733
0.657332
0.657333
0.657334
0.657336
0.657336
0.657337
0.657339
0.65734
0.657341
0.657341
0.657343
0.657344
0.657345
0.657347
0.657347
0.657348
0.65735
0.657351
0.657352
0.657352
0.657354
0.657355
0.657357
0.657358
0.657358
0.657359
0.657361
0.657362
0.657364
0.657364
0.657365
0.657367
0.657368
0.65737
0.65737
0.657371
0.657372
0.657374
0.657375
0.657375
0.657377
0.657378
0.65738
0.657381
0.657381
0.657383
0.657384
0.657386
0.657387
0.657387
0.657389
0.65739
0.657392
0.657393
0.657393
0.657395
0.657396
0.657398
0.657399
0.657399
0.657401
0.657403
0.657404
0.657406
0.657406
0.657407
0.657409
0.65741
0.657412
0.657412
0.657414
0.657415
0.657417
0.657418
0.657418
0.65742
0.657421
0.657423
0.657425
0.657425
0.657426
0.657428
0.657429
0.657431
0.657431
0.657433
0.657434
0.657436
0.657438
0.657438
0.657439
0.657441
0.657443
0.657444
0.657444
0.657446
0.657448
0.657449
0.657451
0.657451
0.657453
0.657454
0.657456
0.657458
0.657458
0.657459
0.657461
0.657463
0.657464
0.657464
0.657466
0.657468
0.657469
0.657471
0.657471
0.657473
0.657475
0.657476
0.657478
0.657478
0.65748
0.657482
0.657483
0.657485
0.657485
0.657487
0.657489
0.65749
0.657492
0.657492
0.657494
0.657496
0.657497
0.657499
0.657499
0.657501
0.657503
0.657505
0.657506
0.657506
0.657508
0.65751
0.657512
0.657514
0.657514
0.657515
0.657517
0.657519
0.657521
0.657521
0.657523
0.657525
0.657526
0.657528
0.657528
0.65753
0.657532
0.657534
0.657536
0.657536
0.657538
0.65754
0.657541
0.657543
0.657543
0.657545
0.657547
0.657549
0.657551
0.657551
0.657553
0.657555
0.657557
0.657558
0.657558
0.65756
0.657562
0.657564
0.657566
0.657566
0.657568
0.65757
0.657572
0.657574
0.657574
0.657576
0.657578
0.65758
0.657582
0.657582
0.657584
0.657586
0.657588
0.65759
0.65759
0.657592
0.657594
0.657596
0.657598
0.657598
0.6576
0.657602
0.657604
0.657606
0.657606
0.657608
0.65761
0.657612
0.657614
0.657614
0.657616
0.657618
0.65762
0.657622
0.657622
0.657624
0.657626
0.657628
0.65763
0.65763
0.657632
0.657634
0.657636
0.657639
0.657639
0.657641
0.657643
0.657645
0.657647
0.657647
0.657649
0.657651
0.657653
0.657655
0.657655
0.657657
0.65766
0.657662
0.657664
0.657664
0.657666
0.657668
0.65767
0.657672
0.657672
0.657675
0.657677
0.657679
0.657681
0.657681
0.657683
0.657685
0.657688
0.65769
0.65769
0.657692
0.657694
0.657696
0.657699
0.657699
0.657701
0.657703
0.657705
0.657707
0.657707
0.65771
0.657712
0.657714
0.657716
0.657716
0.657718
0.657721
0.657723
0.657725
0.657725
0.657727
0.65773
0.657732
0.657734
0.657734
0.657737
0.657739
0.657741
0.657743
0.657743
0.657746
0.657748
0.65775
0.657753
0.657753
0.657755
0.657757
0.657759
0.657762
0.657762
0.657764
0.657766
0.657769
0.657771
0.657771
0.657773
0.657776
0.657778
0.65778
0.65778
0.657783
0.657785
0.657788
0.65779
0.65779
0.657792
0.657795
0.657797
0.657799
0.657799
0.657802
0.657804
0.657807
0.657809
0.657809
0.657811
0.657814
0.657816
0.657819
0.657819
0.657821
0.657823
0.657826
0.657828
0.657828
0.657831
0.657833
0.657836
0.657838
0.657838
0.65784
0.657843
0.657845
0.657848
0.657848
0.65785
0.657853
0.657855
0.657858
0.657858
0.65786
0.657863
0.657865
0.657868
0.657868
0.65787
0.657873
0.657875
0.657878
0.657878
0.65788
0.657883
0.657885
0.657888
0.657888
0.65789
0.657893
0.657896
0.657898
0.657898
0.657901
0.657903
0.657906
0.657908
0.657908
0.657911
0.657913
0.657916
0.657919
0.657919
0.657921
0.657924
0.657926
0.657929
0.657929
0.657932
0.657934
0.657937
0.657939
0.657939
0.657942
0.657945
0.657947
0.65795
0.65795
0.657953
0.657955
0.657958
0.657961
0.657961
0.657963
0.657966
0.657968
0.657971
0.657971
0.657974
0.657976
0.657979
0.657982
0.657982
0.657985
0.657987
0.65799
0.657993
0.657993
0.657995
0.657998
0.658001
0.658003
0.658003
0.658006
0.658009
0.658012
0.658014
0.658014
0.658017
0.65802
0.658023
0.658025
0.658025
0.658028
0.658031
0.658034
0.658036
0.658036
0.658039
0.658042
0.658045
0.658048
0.658048
0.65805
0.658053
0.658056
0.658059
0.658059
0.658061
0.658064
0.658067
0.65807
0.65807
0.658073
0.658076
0.658078
0.658081
0.658081
0.658084
0.658087
0.65809
0.658093
0.658093
0.658095
0.658098
0.658101
0.658104
0.658104
0.658107
0.65811
0.658113
0.658116
0.658116
0.658118
0.658121
0.658124
0.658127
0.658127
0.65813
0.658133
0.658136
0.658139
0.658139
0.658142
0.658145
0.658148
0.658151
0.658151
0.658153
0.658156
0.658159
0.658162
0.658162
0.658165
0.658168
0.658171
0.658174
0.658174
0.658177
0.65818
0.658183
0.658186
0.658186
0.658189
0.658192
0.658195
0.658198
0.658198
0.658201
0.658204
0.658207
0.65821
0.65821
0.658213
0.658216
0.658219
0.658222
0.658222
0.658225
0.658228
0.658231
0.658234
0.658234
0.658238
0.658241
0.658244
0.658247
0.658247
0.65825
0.658253
0.658256
0.658259
0.658259
0.658262
0.658265
0.658268
0.658271
0.658271
0.658275
0.658278
0.658281
0.658284
0.658284
0.658287
0.65829
0.658293
0.658296
0.658296
0.6583
0.658303
0.658306
0.658309
0.658309
0.658312
0.658315
0.658319
0.658322
0.658322
0.658325
0.658328
0.658331
0.658334
0.658334
0.658338
0.658341
0.658344
0.658347
0.658347
0.65835
0.658354
0.658357
0.65836
0.65836
0.658363
0.658367
0.65837
0.658373
0.658373
0.658376
0.65838
0.658383
0.658386
0.658386
0.658389
0.658393
0.658396
0.658399
0.658399
0.658402
0.658406
0.658409
0.658412
0.658412
0.658416
0.658419
0.658422
0.658425
0.658425
0.658429
0.658432
0.658435
0.658439
0.658439
0.658442
0.658445
0.658449
0.658452
0.658452
0.658455
0.658459
0.658462
0.658465
0.658465
0.658469
0.658472
0.658476
0.658479
0.658479
0.658482
0.658486
0.658489
0.658493
0.658493
0.658496
0.658499
0.658503
0.658506
0.658506
0.65851
0.658513
0.658516
0.65852
0.65852
0.658523
0.658527
0.65853
0.658534
0.658534
0.658537
0.65854
0.658544
0.658547
0.658547
0.658551
0.658554
0.658558
0.658561
0.658561
0.658565
0.658568
0.658572
0.658575
0.658575
0.658579
0.658582
0.658586
0.658589
0.658589
0.658593
0.658596
0.6586
0.658603
0.658603
0.658607
0.65861
0.658614
0.658618
0.658618
0.658621
0.658625
0.658628
0.658632
0.658632
0.658635
0.658639
0.658643
0.658646
0.658646
0.65865
0.658653
0.658657
0.65866
0.65866
0.658664
0.658668
0.658671
0.658675
0.658675
0.658679
0.658682
0.658686
0.658689
0.658689
0.658693
0.658697
0.6587
0.658704
0.658704
0.658708
0.658711
0.658715
0.658719
0.658719
0.658722
0.658726
0.65873
0.658733
0.658733
0.658737
0.658741
0.658744
0.658748
0.658748
0.658752
0.658756
0.658759
0.658763
0.658763
0.658767
0.65877
0.658774
0.658778
0.658778
0.658782
0.658785
0.658789
0.658793
0.658793
0.658797
0.6588
0.658804
0.658808
0.658808
0.658812
0.658816
0.658819
0.658823
0.658823
0.658827
0.658831
0.658834
0.658838
0.658838
0.658842
0.658846
0.65885
0.658854
0.658854
0.658857
0.658861
0.658865
0.658869
0.658869
0.658873
0.658877
0.65888
0.658884
0.658884
0.658888
0.658892
0.658896
0.6589
0.6589
0.658904
0.658908
0.658911
0.658915
0.658915
0.658919
0.658923
0.658927
0.658931
0.658931
0.658935
0.658939
0.658943
0.658947
0.658947
0.658951
0.658954
0.658958
0.658962
0.658962
0.658966
0.65897
0.658974
0.658978
0.658978
0.658982
0.658986
0.65899
0.658994
0.658994
0.658998
0.659002
0.659006
0.65901
0.65901
0.659014
0.659018
0.659022
0.659026
0.659026
0.65903
0.659034
0.659038
0.659042
0.659042
0.659046
0.65905
0.659054
0.659058
0.659058
0.659062
0.659066
0.65907
0.659075
0.659075
0.659079
0.659083
0.659087
0.659091
0.659091
0.659095
0.659099
0.659103
0.659107
0.659107
0.659111
0.659115
0.65912
0.659124
0.659124
0.659128
0.659132
0.659136
0.65914
0.65914
0.659144
0.659148
0.659153
0.659157
0.659157
0.659161
0.659165
0.659169
0.659173
0.659173
0.659178
0.659182
0.659186
0.65919
0.65919
0.659194
0.659199
0.659203
0.659207
0.659207
0.659211
0.659215
0.65922
0.659224
0.659224
0.659228
0.659232
0.659236
0.659241
0.659241
0.659245
0.659249
0.659253
0.659258
0.659258
0.659262
0.659266
0.659271
0.659275
0.659275
0.659279
0.659283
0.659288
0.659292
0.659292
0.659296
0.659301
0.659305
0.659309
0.659309
0.659313
0.659318
0.659322
0.659326
0.659326
0.659331
0.659335
0.659339
0.659344
0.659344
0.659348
0.659352
0.659357
0.659361
0.659361
0.659366
0.65937
0.659374
0.659379
0.659379
0.659383
0.659387
0.659392
0.659396
0.659396
0.659401
0.659405
0.659409
0.659414
0.659414
0.659418
0.659423
0.659427
0.659432
0.659432
0.659436
0.65944
0.659445
0.659449
0.659449
0.659454
0.659458
0.659463
0.659467
0.659467
0.659472
0.659476
0.659481
0.659485
0.659485
0.65949
0.659494
0.659499
0.659503
0.659503
0.659508
0.659512
0.659517
0.659521
0.659521
0.659526
0.65953
0.659535
0.659539
0.659539
0.659544
0.659548
0.659553
0.659558
0.659558
0.659562
0.659567
0.659571
0.659576
0.659576
0.65958
0.659585
0.65959
0.659594
0.659594
0.659599
0.659603
0.659608
0.659612
0.659612
0.659617
0.659622
0.659626
0.659631
0.659631
0.659636
0.65964
0.659645
0.65965
0.65965
0.659654
0.659659
0.659664
0.659668
0.659668
0.659673
0.659678
0.659682
0.659687
0.659687
0.659692
0.659696
0.659701
0.659706
0.659706
0.65971
0.659715
0.65972
0.659724
0.659724
0.659729
0.659734
0.659739
0.659743
0.659743
0.659748
0.659753
0.659758
0.659762
0.659762
0.659767
0.659772
0.659777
0.659781
0.659781
0.659786
0.659791
0.659796
0.6598
0.6598
0.659805
0.65981
0.659815
0.65982
0.65982
0.659824
0.659829
0.659834
0.659839
0.659839
0.659844
0.659849
0.659853
0.659858
0.659858
0.659863
0.659868
0.659873
0.659878
0.659878
0.659883
0.659887
0.659892
0.659897
0.659897
0.659902
0.659907
0.659912
0.659917
0.659917
0.659922
0.659926
0.659931
0.659936
0.659936
0.659941
0.659946
0.659951
0.659956
0.659956
0.659961
0.659966
0.659971
0.659976
0.659976
0.659981
0.659986
0.659991
0.659996
0.659996
0.660001
0.660006
0.660011
0.660015
0.660015
0.66002
0.660025
0.66003
0.660035
0.660035
0.66004
0.660045
0.66005
0.660055
0.660055
0.660061
0.660066
0.660071
0.660076
0.660076
0.660081
0.660086
0.660091
0.660096
0.660096
0.660101
0.660106
0.660111
0.660116
0.660116
0.660121
0.660126
0.660131
0.660136
0.660136
0.660142
0.660147
0.660152
0.660157
0.660157
0.660162
0.660167
0.660172
0.660177
0.660177
0.660182
0.660188
0.660193
0.660198
0.660198
0.660203
0.660208
0.660213
0.660218
0.660218
0.660224
0.660229
0.660234
0.660239
0.660239
0.660244
0.660249
0.660255
0.66026
0.66026
0.660265
0.66027
0.660276
0.660281
0.660281
0.660286
0.660291
0.660296
0.660302
0.660302
0.660307
0.660312
0.660317
0.660323
0.660323
0.660328
0.660333
0.660338
0.660344
0.660344
0.660349
0.660354
0.660359
0.660365
0.660365
0.66037
0.660375
0.660381
0.660386
0.660386
0.660391
0.660397
0.660402
0.660407
0.660407
0.660413
0.660418
0.660423
0.660429
0.660429
0.660434
0.660439
0.660445
0.66045
0.66045
0.660455
0.660461
0.660466
0.660472
0.660472
0.660477
0.660482
0.660488
0.660493
0.660493
0.660498
0.660504
0.660509
0.660515
0.660515
0.66052
0.660526
0.660531
0.660536
0.660536
0.660542
0.660547
0.660553
0.660558
0.660558
0.660564
0.660569
0.660575
0.66058
0.66058
0.660586
0.660591
0.660596
0.660602
0.660602
0.660607
0.660613
0.660618
0.660624
0.660624
0.660629
0.660635
0.66064
0.660646
0.660646
0.660652
0.660657
0.660663
0.660668
0.660668
0.660674
0.660679
0.660685
0.66069
0.66069
0.660696
0.660701
0.660707
0.660713
0.660713
0.660718
0.660724
0.660729
0.660735
0.660735
0.660741
0.660746
0.660752
0.660757
0.660757
0.660763
0.660769
0.660774
0.66078
0.66078
0.660786
0.660791
0.660797
0.660803
0.660803
0.660808
0.660814
0.66082
0.660825
0.660825
0.660831
0.660837
0.660842
0.660848
0.660848
0.660854
0.660859
0.660865
0.660871
0.660871
0.660876
0.660882
0.660888
0.660894
0.660894
0.660899
0.660905
0.660911
0.660917
0.660917
0.660922
0.660928
0.660934
0.66094
0.66094
0.660945
0.660951
0.660957
0.660963
0.660963
0.660968
0.660974
0.66098
0.660986
0.660986
0.660992
0.660997
0.661003
0.661009
0.661009
0.661015
0.661021
0.661026
0.661032
0.661032
0.661038
0.661044
0.66105
0.661056
0.661056
0.661062
0.661067
0.661073
0.661079
0.661079
0.661085
0.661091
0.661097
0.661103
0.661103
0.661109
0.661115
0.66112
0.661126
0.661126
0.661132
0.661138
0.661144
0.66115
0.66115
0.661156
0.661162
0.661168
0.661174
0.661174
0.66118
0.661186
0.661192
0.661198
0.661198
0.661204
0.66121
0.661216
0.661222
0.661222
0.661228
0.661234
0.66124
0.661246
0.661246
0.661252
0.661258
0.661264
0.66127
0.66127
0.661276
0.661282
0.661288
0.661294
0.661294
0.6613
0.661306
0.661312
0.661318
0.661318
0.661324
0.66133
0.661336
0.661342
0.661342
0.661348
0.661354
0.66136
0.661367
0.661367
0.661373
0.661379
0.661385
0.661391
0.661391
0.661397
0.661403
0.661409
0.661415
0.661415
0.661422
0.661428
0.661434
0.66144
0.66144
0.661446
0.661452
0.661458
0.661465
0.661465
0.661471
0.661477
0.661483
0.661489
0.661489
0.661496
0.661502
0.661508
0.661514
0.661514
0.66152
0.661527
0.661533
0.661539
0.661539
0.661545
0.661552
0.661558
0.661564
0.661564
0.66157
0.661577
0.661583
0.661589
0.661589
0.661595
0.661602
0.661608
0.661614
0.661614
0.66162
0.661627
0.661633
0.661639
0.661639
0.661646
0.661652
0.661658
0.661665
0.661665
0.661671
0.661677
0.661684
0.66169
0.66169
0.661696
0.661703
0.661709
0.661715
0.661715
0.661722
0.661728
0.661734
0.661741
0.661741
0.661747
0.661753
0.66176
0.661766
0.661766
0.661773
0.661779
0.661785
0.661792
0.661792
0.661798
0.661805
0.661811
0.661818
0.661818
0.661824
0.66183
0.661837
0.661843
0.661843
0.66185
0.661856
0.661863
0.661869
0.661869
0.661876
0.661882
0.661889
0.661895
0.661895
0.661902
0.661908
0.661915
0.661921
0.661921
0.661928
0.661934
0.661941
0.661947
0.661947
0.661954
0.66196
0.661967
0.661973
0.661973
0.66198
0.661986
0.661993
0.662
0.662
0.662006
0.662013
0.662019
0.662026
0.662026
0.662032
0.662039
0.662046
0.662052
0.662052
0.662059
0.662065
0.662072
0.662079
0.662079
0.662085
0.662092
0.662099
0.662105
0.662105
0.662112
0.662119
0.662125
0.662132
0.662132
0.662138
0.662145
0.662152
0.662159
0.662159
0.662165
0.662172
0.662179
0.662185
0.662185
0.662192
0.662199
0.662205
0.662212
0.662212
0.662219
0.662226
0.662232
0.662239
0.662239
0.662246
0.662253
0.662259
0.662266
0.662266
0.662273
0.66228
0.662286
0.662293
0.662293
0.6623
0.662307
0.662313
0.66232
0.66232
0.662327
0.662334
0.662341
0.662347
0.662347
0.662354
0.662361
0.662368
0.662375
0.662375
0.662382
0.662388
0.662395
0.662402
0.662402
0.662409
0.662416
0.662423
0.66243
0.66243
0.662436
0.662443
0.66245
0.662457
0.662457
0.662464
0.662471
0.662478
0.662485
0.662485
0.662492
0.662499
0.662505
0.662512
0.662512
0.662519
0.662526
0.662533
0.66254
0.66254
0.662547
0.662554
0.662561
0.662568
0.662568
0.662575
0.662582
0.662589
0.662596
0.662596
0.662603
0.66261
0.662617
0.662624
0.662624
0.662631
0.662638
0.662645
0.662652
0.662652
0.662659
0.662666
0.662673
0.66268
0.66268
0.662687
0.662694
0.662701
0.662708
0.662708
0.662715
0.662722
0.662729
0.662737
0.662737
0.662744
0.662751
0.662758
0.662765
0.662765
0.662772
0.662779
0.662786
0.662793
0.662793
0.6628
0.662808
0.662815
0.662822
0.662822
0.662829
0.662836
0.662843
0.66285
0.66285
0.662858
0.662865
0.662872
0.662879
0.662879
0.662886
0.662894
0.662901
0.662908
0.662908
0.662915
0.662922
0.662929
0.662937
0.662937
0.662944
0.662951
0.662958
0.662966
0.662966
0.662973
0.66298
0.662987
0.662995
0.662995
0.663002
0.663009
0.663016
0.663024
0.663024
0.663031
0.663038
0.663046
0.663053
0.663053
0.66306
0.663067
0.663075
0.663082
0.663082
0.663089
0.663097
0.663104
0.663111
0.663111
0.663119
0.663126
0.663133
0.663141
0.663141
0.663148
0.663155
0.663163
0.66317
0.66317
0.663178
0.663185
0.663192
0.6632
0.6632
0.663207
0.663215
0.663222
0.663229
0.663229
0.663237
0.663244
0.663252
0.663259
0.663259
0.663266
0.663274
0.663281
0.663289
0.663289
0.663296
0.663304
0.663311
0.663319
0.663319
0.663326
0.663334
0.663341
0.663349
0.663349
0.663356
0.663364
0.663371
0.663379
0.663379
0.663386
0.663394
0.663401
0.663409
0.663409
0.663416
0.663424
0.663431
0.663439
0.663439
0.663446
0.663454
0.663462
0.663469
0.663469
0.663477
0.663484
0.663492
0.663499
0.663499
0.663507
0.663515
0.663522
0.66353
0.66353
0.663537
0.663545
0.663553
0.66356
0.66356
0.663568
0.663576
0.663583
0.663591
0.663591
0.663598
0.663606
0.663614
0.663621
0.663621
0.663629
0.663637
0.663645
0.663652
0.663652
0.66366
0.663668
0.663675
0.663683
0.663683
0.663691
0.663698
0.663706
0.663714
0.663714
0.663722
0.663729
0.663737
0.663745
0.663745
0.663753
0.66376
0.663768
0.663776
0.663776
0.663784
0.663791
0.663799
0.663807
0.663807
0.663815
0.663823
0.66383
0.663838
0.663838
0.663846
0.663854
0.663862
0.663869
0.663869
0.663877
0.663885
0.663893
0.663901
0.663901
0.663909
0.663916
0.663924
0.663932
0.663932
0.66394
0.663948
0.663956
0.663964
0.663964
0.663972
0.66398
0.663987
0.663995
0.663995
0.664003
0.664011
0.664019
0.664027
0.664027
0.664035
0.664043
0.664051
0.664059
0.664059
0.664067
0.664075
0.664083
0.664091
0.664091
0.664099
0.664106
0.664114
0.664122
0.664122
0.66413
0.664138
0.664146
0.664154
0.664154
0.664162
0.664171
0.664179
0.664187
0.664187
0.664195
0.664203
0.664211
0.664219
0.664219
0.664227
0.664235
0.664243
0.664251
0.664251
0.664259
0.664267
0.664275
0.664283
0.664283
0.664291
0.664299
0.664308
0.664316
0.664316
0.664324
0.664332
0.66434
0.664348
0.664348
0.664356
0.664364
0.664373
0.664381
0.664381
0.664389
0.664397
0.664405
0.664413
0.664413
0.664421
0.66443
0.664438
0.664446
0.664446
0.664454
0.664462
0.664471
0.664479
0.664479
0.664487
0.664495
0.664503
0.664512
0.664512
0.66452
0.664528
0.664536
0.664545
0.664545
0.664553
0.664561
0.664569
0.664578
0.664578
0.664586
0.664594
0.664602
0.664611
0.664611
0.664619
0.664627
0.664636
0.664644
0.664644
0.664652
0.664661
0.664669
0.664677
0.664677
0.664686
0.664694
0.664702
0.664711
0.664711
0.664719
0.664727
0.664736
0.664744
0.664744
0.664752
0.664761
0.664769
0.664778
0.664778
0.664786
0.664794
0.664803
0.664811
0.664811
0.66482
0.664828
0.664836
0.664845
0.664845
0.664853
0.664862
0.66487
0.664879
0.664879
0.664887
0.664896
0.664904
0.664913
0.664913
0.664921
0.664929
0.664938
0.664946
0.664946
0.664955
0.664963
0.664972
0.66498
0.66498
0.664989
0.664998
0.665006
0.665015
0.665015
0.665023
0.665032
0.66504
0.665049
0.665049
0.665057
0.665066
0.665074
0.665083
0.665083
0.665092
0.6651
0.665109
0.665117
0.665117
0.665126
0.665135
0.665143
0.665152
0.665152
0.66516
0.665169
0.665178
0.665186
0.665186
0.665195
0.665204
0.665212
0.665221
0.665221
0.66523
0.665238
0.665247
0.665256
0.665256
0.665264
0.665273
0.665282
0.66529
0.66529
0.665299
0.665308
0.665316
0.665325
0.665325
0.665334
0.665343
0.665351
0.66536
0.66536
0.665369
0.665378
0.665386
0.665395
0.665395
0.665404
0.665413
0.665421
0.66543
0.66543
0.665439
0.665448
0.665457
0.665465
0.665465
0.665474
0.665483
0.665492
0.665501
0.665501
0.665509
0.665518
0.665527
0.665536
0.665536
0.665545
0.665554
0.665562
0.665571
0.665571
0.66558
0.665589
0.665598
0.665607
0.665607
0.665616
0.665625
0.665633
0.665642
0.665642
0.665651
0.66566
0.665669
0.665678
0.665678
0.665687
0.665696
0.665705
0.665714
0.665714
0.665723
0.665732
0.665741
0.66575
0.66575
0.665759
0.665768
0.665777
0.665786
0.665786
0.665795
0.665804
0.665813
0.665822
0.665822
0.665831
0.66584
0.665849
0.665858
0.665858
0.665867
0.665876
0.665885
0.665894
0.665894
0.665903
0.665912
0.665921
0.66593
0.66593
0.665939
0.665948
0.665957
0.665966
0.665966
0.665976
0.665985
0.665994
0.666003
0.666003
0.666012
0.666021
0.66603
0.666039
0.666039
0.666049
0.666058
0.666067
0.666076
0.666076
0.666085
0.666094
0.666103
0.666113
0.666113
0.666122
0.666131
0.66614
0.666149
0.666149
0.666159
0.666168
0.666177
0.666186
0.666186
0.666195
0.666205
0.666214
0.666223
0.666223
0.666232
0.666242
0.666251
0.66626
0.66626
0.666269
0.666279
0.666288
0.666297
0.666297
0.666306
0.666316
0.666325
0.666334
0.666334
0.666344
0.666353
0.666362
0.666372
0.666372
0.666381
0.66639
0.6664
0.666409
0.666409
0.666418
0.666428
0.666437
0.666446
0.666446
0.666456
0.666465
0.666475
0.666484
0.666484
0.666493
0.666503
0.666512
0.666522
0.666522
0.666531
0.66654
0.66655
0.666559
0.666559
0.666569
0.666578
0.666588
0.666597
0.666597
0.666606
0.666616
0.666625
0.666635
0.666635
0.666644
0.666654
0.666663
0.666673
0.666673
0.666682
0.666692
0.666701
0.666711
0.666711
0.66672
0.66673
0.666739
0.666749
0.666749
0.666759
0.666768
0.666778
0.666787
0.666787
0.666797
0.666806
0.666816
0.666825
0.666825
0.666835
0.666845
0.666854
0.666864
0.666864
0.666873
0.666883
0.666893
0.666902
0.666902
0.666912
0.666922
0.666931
0.666941
0.666941
0.66695
0.66696
0.66697
0.666979
0.666979
0.666989
0.666999
0.667008
0.667018
0.667018
0.667028
0.667038
0.667047
0.667057
0.667057
0.667067
0.667076
0.667086
0.667096
0.667096
0.667106
0.667115
0.667125
0.667135
0.667135
0.667145
0.667154
0.667164
0.667174
0.667174
0.667184
0.667193
0.667203
0.667213
0.667213
0.667223
0.667233
0.667242
0.667252
0.667252
0.667262
0.667272
0.667282
0.667292
0.667292
0.667301
0.667311
0.667321
0.667331
0.667331
0.667341
0.667351
0.667361
0.66737
0.66737
0.66738
0.66739
0.6674
0.66741
0.66741
0.66742
0.66743
0.66744
0.66745
0.66745
0.66746
0.66747
0.66748
0.667489
0.667489
0.667499
0.667509
0.667519
0.667529
0.667529
0.667539
0.667549
0.667559
0.667569
0.667569
0.667579
0.667589
0.667599
0.667609
0.667609
0.667619
0.667629
0.667639
0.667649
0.667649
0.667659
0.667669
0.667679
0.667689
0.667689
0.6677
0.66771
0.66772
0.66773
0.66773
0.66774
0.66775
0.66776
0.66777
0.66777
0.66778
0.66779
0.6678
0.667811
0.667811
0.667821
0.667831
0.667841
0.667851
0.667851
0.667861
0.667871
0.667882
0.667892
0.667892
0.667902
0.667912
0.667922
0.667932
0.667932
0.667943
0.667953
0.667963
0.667973
0.667973
0.667983
0.667994
0.668004
0.668014
0.668014
0.668024
0.668035
0.668045
0.668055
0.668055
0.668065
0.668076
0.668086
0.668096
0.668096
0.668106
0.668117
0.668127
0.668137
0.668137
0.668148
0.668158
0.668168
0.668179
0.668179
0.668189
0.668199
0.66821
0.66822
0.66822
0.66823
0.668241
0.668251
0.668261
0.668261
0.668272
0.668282
0.668292
0.668303
0.668303
0.668313
0.668324
0.668334
0.668344
0.668344
0.668355
0.668365
0.668376
0.668386
0.668386
0.668396
0.668407
0.668417
0.668428
0.668428
0.668438
0.668449
0.668459
0.66847
0.66847
0.66848
0.668491
0.668501
0.668512
0.668512
0.668522
0.668533
0.668543
0.668554
0.668554
0.668564
0.668575
0.668585
0.668596
0.668596
0.668606
0.668617
0.668627
0.668638
0.668638
0.668649
0.668659
0.66867
0.66868
0.66868
0.668691
0.668702
0.668712
0.668723
0.668723
0.668733
0.668744
0.668755
0.668765
0.668765
0.668776
0.668786
0.668797
0.668808
0.668808
0.668818
0.668829
0.66884
0.66885
0.66885
0.668861
0.668872
0.668883
0.668893
0.668893
0.668904
0.668915
0.668925
0.668936
0.668936
0.668947
0.668957
0.668968
0.668979
0.668979
0.66899
0.669
0.669011
0.669022
0.669022
0.669033
0.669044
0.669054
0.669065
0.669065
0.669076
0.669087
0.669097
0.669108
0.669108
0.669119
0.66913
0.669141
0.669152
0.669152
0.669162
0.669173
0.669184
0.669195
0.669195
0.669206
0.669217
0.669228
0.669238
0.669238
0.669249
0.66926
0.669271
0.669282
0.669282
0.669293
0.669304
0.669315
0.669326
0.669326
0.669337
0.669348
0.669358
0.669369
0.669369
0.66938
0.669391
0.669402
0.669413
0.669413
0.669424
0.669435
0.669446
0.669457
0.669457
0.669468
0.669479
0.66949
0.669501
0.669501
0.669512
0.669523
0.669534
0.669545
0.669545
0.669556
0.669567
0.669578
0.669589
0.669589
0.669601
0.669612
0.669623
0.669634
0.669634
0.669645
0.669656
0.669667
0.669678
0.669678
0.669689
0.6697
0.669711
0.669723
0.669723
0.669734
0.669745
0.669756
0.669767
0.669767
0.669778
0.669789
0.669801
0.669812
0.669812
0.669823
0.669834
0.669845
0.669857
0.669857
0.669868
0.669879
0.66989
0.669901
0.669901
0.669913
0.669924
0.669935
0.669946
0.669946
0.669958
0.669969
0.66998
0.669991
0.669991
0.670003
0.670014
0.670025
0.670036
0.670036
0.670048
0.670059
0.67007
0.670082
0.670082
0.670093
0.670104
0.670116
0.670127
0.670127
0.670138
0.67015
0.670161
0.670172
0.670172
0.670184
0.670195
0.670206
0.670218
0.670218
0.670229
0.670241
0.670252
0.670263
0.670263
0.670275
0.670286
0.670298
0.670309
0.670309
0.67032
0.670332
0.670343
0.670355
0.670355
0.670366
0.670378
0.670389
0.670401
0.670401
0.670412
0.670424
0.670435
0.670447
0.670447
0.670458
0.67047
0.670481
0.670493
0.670493
0.670504
0.670516
0.670527
0.670539
0.670539
0.67055
0.670562
0.670573
0.670585
0.670585
0.670597
0.670608
0.67062
0.670631
0.670631
0.670643
0.670654
0.670666
0.670678
0.670678
0.670689
0.670701
0.670713
0.670724
0.670724
0.670736
0.670747
0.670759
0.670771
0.670771
0.670782
0.670794
0.670806
0.670817
0.670817
0.670829
0.670841
0.670853
0.670864
0.670864
0.670876
0.670888
0.670899
0.670911
0.670911
0.670923
0.670935
0.670946
0.670958
0.670958
0.67097
0.670982
0.670993
0.671005
0.671005
0.671017
0.671029
0.67104
0.671052
0.671052
0.671064
0.671076
0.671088
0.6711
0.6711
0.671111
0.671123
0.671135
0.671147
0.671147
0.671159
0.671171
0.671182
0.671194
0.671194
0.671206
0.671218
0.67123
0.671242
0.671242
0.671254
0.671266
0.671278
0.671289
0.671289
0.671301
0.671313
0.671325
0.671337
0.671337
0.671349
0.671361
0.671373
0.671385
0.671385
0.671397
0.671409
0.671421
0.671433
0.671433
0.671445
0.671457
0.671469
0.671481
0.671481
0.671493
0.671505
0.671517
0.671529
0.671529
0.671541
0.671553
0.671565
0.671577
0.671577
0.671589
0.671601
0.671613
0.671625
0.671625
0.671638
0.67165
0.671662
0.671674
0.671674
0.671686
0.671698
0.67171
0.671722
0.671722
0.671734
0.671747
0.671759
0.671771
0.671771
0.671783
0.671795
0.671807
0.67182
0.67182
0.671832
0.671844
0.671856
0.671868
0.671868
0.671881
0.671893
0.671905
0.671917
0.671917
0.671929
0.671942
0.671954
0.671966
0.671966
0.671978
0.671991
0.672003
0.672015
0.672015
0.672027
0.67204
0.672052
0.672064
0.672064
0.672077
0.672089
0.672101
0.672114
0.672114
0.672126
0.672138
0.672151
0.672163
0.672163
0.672175
0.672188
0.6722
0.672212
0.672212
0.672225
0.672237
0.672249
0.672262
0.672262
0.672274
0.672287
0.672299
0.672311
0.672311
0.672324
0.672336
0.672349
0.672361
0.672361
0.672374
0.672386
0.672399
0.672411
0.672411
0.672423
0.672436
0.672448
0.672461
0.672461
0.672473
0.672486
0.672498
0.672511
0.672511
0.672523
0.672536
0.672548
0.672561
0.672561
0.672574
0.672586
0.672599
0.672611
0.672611
0.672624
0.672636
0.672649
0.672662
0.672662
0.672674
0.672687
0.672699
0.672712
0.672712
0.672725
0.672737
0.67275
0.672762
0.672762
0.672775
0.672788
0.6728
0.672813
0.672813
0.672826
0.672838
0.672851
0.672864
0.672864
0.672876
0.672889
0.672902