<?xml version="1.0"?>
<VTKFile type="UnstructuredGrid" version="0.1" byte_order="LittleEndian">
<UnstructuredGrid>
<Piece NumberOfPoints="5000" NumberOfCells="4000">
<PointData Scalars="Reaction 0">
<DataArray type="Float32" Name="Reaction 0" format="ascii">
0.952228
0.952228
0.952228
0.952228
0.952228
0.952228
0.952228
0.952228
0.952228
0.952228
0.952228
0.952228
0.952228
0.952228
0.952228
0.952228
0.952228
0.952228
0.952228
0.952228
0.952228
0.952228
0.952228
0.952228
0.952228
0.952228
0.952228
0.952228
0.952228
0.952228
0.952228
0.952228
0.952228
0.952228
0.952228
0.952228
0.952228
0.952228
0.952228
0.952229
0.952229
0.952229
0.952229
0.952229
0.952229
0.952229
0.952229
0.952229
0.952229
0.952229
0.952229
0.952229
0.952229
0.952229
0.952229
0.952229
0.952229
0.952229
0.952229
0.952229
0.952229
0.952229
0.952229
0.952229
0.952229
0.952229
0.952229
0.952229
0.952229
0.952229
0.952229
0.952229
0.952229
0.952229
0.952229
0.952229
0.952229
0.952229
0.952229
0.952229
0.952229
0.952229
0.952229
0.95223
0.95223
0.95223
0.95223
0.95223
0.95223
0.95223
0.95223
0.95223
0.95223
0.95223
0.95223
0.95223
0.95223
0.95223
0.95223
0.95223
0.95223
0.95223
0.95223
0.95223
0.95223
0.95223
0.95223
0.95223
0.95223
0.95223
0.95223
0.952231
0.952231
0.952231
0.952231
0.952231
0.952231
0.952231
0.952231
0.952231
0.952231
0.952231
0.952231
0.952231
0.952231
0.952231
0.952231
0.952231
0.952231
0.952231
0.952231
0.952231
0.952231
0.952232
0.952232
0.952232
0.952232
0.952232
0.952232
0.952232
0.952232
0.952232
0.952232
0.952232
0.952232
0.952232
0.952232
0.952232
0.952232
0.952232
0.952232
0.952232
0.952233
0.952233
0.952233
0.952233
0.952233
0.952233
0.952233
0.952233
0.952233
0.952233
0.952233
0.952233
0.952233
0.952233
0.952233
0.952233
0.952233
0.952234
0.952234
0.952234
0.952234
0.952234
0.952234
0.952234
0.952234
0.952234
0.952234
0.952234
0.952234
0.952234
0.952234
0.952234
0.952235
0.952235
0.952235
0.952235
0.952235
0.952235
0.952235
0.952235
0.952235
0.952235
0.952235
0.952235
0.952235
0.952235
0.952236
0.952236
0.952236
0.952236
0.952236
0.952236
0.952236
0.952236
0.952236
0.952236
0.952236
0.952236
0.952236
0.952236
0.952237
0.952237
0.952237
0.952237
0.952237
0.952237
0.952237
0.952237
0.952237
0.952237
0.952237
0.952238
0.952238
0.952238
0.952238
0.952238
0.952238
0.952238
0.952238
0.952238
0.952238
0.952238
0.952238
0.952238
0.952239
0.952239
0.952239
0.952239
0.952239
0.952239
0.952239
0.952239
0.952239
0.952239
0.952239
0.95224
0.95224
0.95224
0.95224
0.95224
0.95224
0.95224
0.95224
0.95224
0.95224
0.952241
0.952241
0.952241
0.952241
0.952241
0.952241
0.952241
0.952241
0.952241
0.952241
0.952242
0.952242
0.952242
0.952242
0.952242
0.952242
0.952242
0.952242
0.952242
0.952242
0.952243
0.952243
0.952243
0.952243
0.952243
0.952243
0.952243
0.952243
0.952243
0.952243
0.952244
0.952244
0.952244
0.952244
0.952244
0.952244
0.952244
0.952244
0.952244
0.952245
0.952245
0.952245
0.952245
0.952245
0.952245
0.952245
0.952245
0.952246
0.952246
0.952246
0.952246
0.952246
0.952246
0.952246
0.952246
0.952246
0.952247
0.952247
0.952247
0.952247
0.952247
0.952247
0.952247
0.952247
0.952247
0.952248
0.952248
0.952248
0.952248
0.952248
0.952248
0.952248
0.952248
0.952248
0.952249
0.952249
0.952249
0.952249
0.952249
0.952249
0.952249
0.95225
0.95225
0.95225
0.95225
0.95225
0.95225
0.95225
0.95225
0.952251
0.952251
0.952251
0.952251
0.952251
0.952251
0.952251
0.952251
0.952252
0.952252
0.952252
0.952252
0.952252
0.952252
0.952252
0.952252
0.952253
0.952253
0.952253
0.952253
0.952253
0.952253
0.952253
0.952254
0.952254
0.952254
0.952254
0.952254
0.952254
0.952254
0.952255
0.952255
0.952255
0.952255
0.952255
0.952255
0.952255
0.952256
0.952256
0.952256
0.952256
0.952256
0.952256
0.952257
0.952257
0.952257
0.952257
0.952257
0.952257
0.952257
0.952257
0.952258
0.952258
0.952258
0.952258
0.952258
0.952258
0.952259
0.952259
0.952259
0.952259
0.952259
0.952259
0.95226
0.95226
0.95226
0.95226
0.95226
0.95226
0.95226
0.95226
0.952261
0.952261
0.952261
0.952261
0.952261
0.952261
0.952262
0.952262
0.952262
0.952262
0.952262
0.952262
0.952263
0.952263
0.952263
0.952263
0.952263
0.952263
0.952263
0.952264
0.952264
0.952264
0.952264
0.952264
0.952264
0.952265
0.952265
0.952265
0.952265
0.952265
0.952266
0.952266
0.952266
0.952266
0.952266
0.952266
0.952267
0.952267
0.952267
0.952267
0.952267
0.952267
0.952268
0.952268
0.952268
0.952268
0.952268
0.952268
0.952268
0.952269
0.952269
0.952269
0.952269
0.952269
0.95227
0.95227
0.95227
0.95227
0.95227
0.95227
0.952271
0.952271
0.952271
0.952271
0.952271
0.952272
0.952272
0.952272
0.952272
0.952272
0.952272
0.952273
0.952273
0.952273
0.952273
0.952273
0.952274
0.952274
0.952274
0.952274
0.952274
0.952275
0.952275
0.952275
0.952275
0.952275
0.952275
0.952276
0.952276
0.952276
0.952276
0.952276
0.952277
0.952277
0.952277
0.952277
0.952277
0.952278
0.952278
0.952278
0.952278
0.952278
0.952279
0.952279
0.952279
0.952279
0.952279
0.95228
0.95228
0.95228
0.95228
0.95228
0.952281
0.952281
0.952281
0.952281
0.952281
0.952282
0.952282
0.952282
0.952282
0.952282
0.952283
0.952283
0.952283
0.952283
0.952283
0.952284
0.952284
0.952284
0.952284
0.952284
0.952285
0.952285
0.952285
0.952285
0.952285
0.952286
0.952286
0.952286
0.952286
0.952286
0.952287
0.952287
0.952287
0.952287
0.952287
0.952288
0.952288
0.952288
0.952288
0.952289
0.952289
0.952289
0.952289
0.952289
0.95229
0.95229
0.95229
0.95229
0.95229
0.952291
0.952291
0.952291
0.952291
0.952291
0.952292
0.952292
0.952292
0.952292
0.952293
0.952293
0.952293
0.952293
0.952293
0.952294
0.952294
0.952294
0.952294
0.952295
0.952295
0.952295
0.952295
0.952295
0.952296
0.952296
0.952296
0.952296
0.952296
0.952297
0.952297
0.952297
0.952298
0.952298
0.952298
0.952298
0.952299
0.952299
0.952299
0.952299
0.952299
0.9523
0.9523
0.9523
0.9523
0.952301
0.952301
0.952301
0.952301
0.952301
0.952302
0.952302
0.952302
0.952302
0.952303
0.952303
0.952303
0.952303
0.952303
0.952304
0.952304
0.952304
0.952305
0.952305
0.952305
0.952305
0.952306
0.952306
0.952306
0.952306
0.952306
0.952307
0.952307
0.952307
0.952307
0.952308
0.952308
0.952308
0.952308
0.952309
0.952309
0.952309
0.95231
0.95231
0.95231
0.95231
0.95231
0.952311
0.952311
0.952311
0.952311
0.952312
0.952312
0.952312
0.952312
0.952313
0.952313
0.952313
0.952313
0.952314
0.952314
0.952314
0.952315
0.952315
0.952315
0.952315
0.952316
0.952316
0.952316
0.952316
0.952316
0.952317
0.952317
0.952317
0.952317
0.952318
0.952318
0.952318
0.952318
0.952319
0.952319
0.952319
0.95232
0.95232
0.95232
0.95232
0.952321
0.952321
0.952321
0.952321
0.952322
0.952322
0.952322
0.952322
0.952323
0.952323
0.952323
0.952324
0.952324
0.952324
0.952324
0.952325
0.952325
0.952325
0.952325
0.952326
0.952326
0.952326
0.952326
0.952327
0.952327
0.952327
0.952328
0.952328
0.952328
0.952328
0.952329
0.952329
0.952329
0.95233
0.95233
0.95233
0.952331
0.952331
0.952331
0.952331
0.952332
0.952332
0.952332
0.952332
0.952333
0.952333
0.952333
0.952333
0.952334
0.952334
0.952334
0.952335
0.952335
0.952335
0.952335
0.952336
0.952336
0.952336
0.952337
0.952337
0.952337
0.952338
0.952338
0.952338
0.952338
0.952339
0.952339
0.952339
0.952339
0.95234
0.95234
0.952341
0.952341
0.952341
0.952341
0.952342
0.952342
0.952342
0.952342
0.952343
0.952343
0.952343
0.952343
0.952344
0.952344
0.952345
0.952345
0.952345
0.952345
0.952346
0.952346
0.952346
0.952346
0.952347
0.952347
0.952348
0.952348
0.952348
0.952348
0.952349
0.952349
0.952349
0.952349
0.95235
0.95235
0.952351
0.952351
0.952351
0.952351
0.952352
0.952352
0.952352
0.952352
0.952353
0.952353
0.952354
0.952354
0.952354
0.952354
0.952355
0.952355
0.952356
0.952356
0.952356
0.952356
0.952357
0.952357
0.952357
0.952358
0.952358
0.952358
0.952359
0.952359
0.952359
0.95236
0.95236
0.95236
0.95236
0.952361
0.952361
0.952362
0.952362
0.952362
0.952362
0.952363
0.952363
0.952364
0.952364
0.952364
0.952364
0.952365
0.952365
0.952365
0.952366
0.952366
0.952366
0.952367
0.952367
0.952367
0.952368
0.952368
0.952368
0.952368
0.952369
0.952369
0.95237
0.95237
0.95237
0.95237
0.952371
0.952371
0.952372
0.952372
0.952372
0.952372
0.952373
0.952373
0.952373
0.952374
0.952374
0.952375
0.952375
0.952375
0.952375
0.952376
0.952376
0.952377
0.952377
0.952377
0.952377
0.952378
0.952378
0.952378
0.952379
0.952379
0.95238
0.95238
0.95238
0.95238
0.952381
0.952381
0.952382
0.952382
0.952382
0.952383
0.952383
0.952383
0.952383
0.952384
0.952384
0.952385
0.952385
0.952385
0.952386
0.952386
0.952386
0.952387
0.952387
0.952387
0.952388
0.952388
0.952389
0.952389
0.952389
0.95239
0.95239
0.95239
0.95239
0.952391
0.952391
0.952392
0.952392
0.952392
0.952393
0.952393
0.952393
0.952394
0.952394
0.952394
0.952395
0.952395
0.952396
0.952396
0.952396
0.952397
0.952397
0.952398
0.952398
0.952398
0.952398
0.952399
0.952399
0.952399
0.9524
0.9524
0.952401
0.952401
0.952401
0.952402
0.952402
0.952403
0.952403
0.952403
0.952403
0.952404
0.952404
0.952405
0.952405
0.952405
0.952406
0.952406
0.952407
0.952407
0.952407
0.952408
0.952408
0.952409
0.952409
0.952409
0.952409
0.95241
0.95241
0.95241
0.952411
0.952411
0.952412
0.952412
0.952412
0.952413
0.952413
0.952414
0.952414
0.952414
0.952415
0.952415
0.952416
0.952416
0.952416
0.952416
0.952417
0.952417
0.952418
0.952418
0.952418
0.952419
0.952419
0.95242
0.95242
0.95242
0.952421
0.952421
0.952422
0.952422
0.952422
0.952423
0.952423
0.952424
0.952424
0.952424
0.952425
0.952425
0.952426
0.952426
0.952426
0.952427
0.952427
0.952428
0.952428
0.952428
0.952429
0.952429
0.95243
0.95243
0.95243
0.952431
0.952431
0.952431
0.952431
0.952432
0.952432
0.952433
0.952433
0.952433
0.952434
0.952434
0.952435
0.952435
0.952435
0.952436
0.952436
0.952437
0.952437
0.952437
0.952438
0.952438
0.952439
0.952439
0.952439
0.95244
0.95244
0.952441
0.952442
0.952442
0.952442
0.952443
0.952443
0.952444
0.952444
0.952444
0.952445
0.952445
0.952446
0.952446
0.952446
0.952447
0.952447
0.952448
0.952448
0.952448
0.952449
0.952449
0.95245
0.95245
0.95245
0.952451
0.952451
0.952452
0.952452
0.952452
0.952453
0.952453
0.952454
0.952454
0.952454
0.952455
0.952455
0.952456
0.952456
0.952456
0.952457
0.952457
0.952458
0.952458
0.952459
0.952459
0.95246
0.95246
0.95246
0.952461
0.952461
0.952462
0.952462
0.952462
0.952463
0.952463
0.952464
0.952464
0.952464
0.952465
0.952465
0.952466
0.952467
0.952467
0.952467
0.952468
0.952468
0.952469
0.952469
0.952469
0.95247
0.95247
0.952471
0.952471
0.952471
0.952472
0.952472
0.952473
0.952473
0.952474
0.952474
0.952475
0.952475
0.952475
0.952476
0.952476
0.952477
0.952477
0.952477
0.952478
0.952478
0.952479
0.95248
0.95248
0.95248
0.952481
0.952481
0.952482
0.952482
0.952482
0.952483
0.952483
0.952484
0.952484
0.952485
0.952485
0.952486
0.952486
0.952486
0.952487
0.952487
0.952488
0.952489
0.952489
0.952489
0.95249
0.95249
0.952491
0.952491
0.952491
0.952492
0.952492
0.952493
0.952493
0.952494
0.952494
0.952495
0.952495
0.952495
0.952496
0.952496
0.952497
0.952498
0.952498
0.952498
0.952499
0.952499
0.9525
0.9525
0.9525
0.952501
0.952502
0.952502
0.952502
0.952503
0.952503
0.952504
0.952504
0.952504
0.952505
0.952506
0.952506
0.952507
0.952507
0.952507
0.952508
0.952509
0.952509
0.952509
0.95251
0.95251
0.952511
0.952511
0.952511
0.952512
0.952513
0.952513
0.952514
0.952514
0.952514
0.952515
0.952516
0.952516
0.952516
0.952517
0.952517
0.952518
0.952519
0.952519
0.952519
0.95252
0.95252
0.952521
0.952521
0.952522
0.952522
0.952523
0.952523
0.952523
0.952524
0.952525
0.952525
0.952526
0.952526
0.952526
0.952527
0.952528
0.952528
0.952528
0.952529
0.952529
0.95253
0.952531
0.952531
0.952531
0.952532
0.952532
0.952533
0.952533
0.952534
0.952534
0.952535
0.952535
0.952535
0.952536
0.952537
0.952537
0.952538
0.952538
0.952539
0.952539
0.95254
0.95254
0.95254
0.952541
0.952542
0.952542
0.952543
0.952543
0.952543
0.952544
0.952545
0.952545
0.952545
0.952546
0.952547
0.952547
0.952548
0.952548
0.952548
0.952549
0.95255
0.95255
0.95255
0.952551
0.952552
0.952552
0.952553
0.952553
0.952553
0.952554
0.952555
0.952555
0.952555
0.952556
0.952557
0.952557
0.952558
0.952558
0.952559
0.952559
0.95256
0.95256
0.95256
0.952561
0.952562
0.952562
0.952563
0.952563
0.952564
0.952564
0.952565
0.952566
0.952566
0.952566
0.952567
0.952567
0.952568
0.952568
0.952569
0.952569
0.95257
0.952571
0.952571
0.952571
0.952572
0.952573
0.952573
0.952573
0.952574
0.952575
0.952575
0.952576
0.952576
0.952577
0.952577
0.952578
0.952579
0.952579
0.952579
0.95258
0.952581
0.952581
0.952581
0.952582
0.952583
0.952583
0.952584
0.952584
0.952584
0.952585
0.952586
0.952586
0.952586
0.952587
0.952588
0.952588
0.952589
0.952589
0.95259
0.95259
0.952591
0.952592
0.952592
0.952592
0.952593
0.952594
0.952595
0.952595
0.952595
0.952596
0.952597
0.952597
0.952597
0.952598
0.952599
0.952599
0.9526
0.9526
0.952601
0.952601
0.952602
0.952603
0.952603
0.952603
0.952604
0.952605
0.952605
0.952605
0.952606
0.952607
0.952607
0.952608
0.952608
0.952609
0.952609
0.95261
0.952611
0.952611
0.952611
0.952612
0.952613
0.952614
0.952614
0.952614
0.952615
0.952616
0.952616
0.952616
0.952617
0.952618
0.952618
0.952619
0.952619
0.95262
0.952621
0.952621
0.952622
0.952622
0.952623
0.952623
0.952624
0.952625
0.952625
0.952625
0.952626
0.952627
0.952627
0.952627
0.952628
0.952629
0.95263
0.95263
0.95263
0.952631
0.952632
0.952632
0.952633
0.952633
0.952634
0.952635
0.952635
0.952636
0.952636
0.952637
0.952637
0.952638
0.952639
0.952639
0.95264
0.95264
0.952641
0.952642
0.952642
0.952642
0.952643
0.952644
0.952645
0.952645
0.952645
0.952646
0.952647
0.952647
0.952647
0.952648
0.952649
0.95265
0.95265
0.95265
0.952651
0.952652
0.952652
0.952653
0.952653
0.952654
0.952655
0.952655
0.952656
0.952656
0.952657
0.952658
0.952658
0.952659
0.952659
0.95266
0.952661
0.952661
0.952662
0.952662
0.952663
0.952663
0.952664
0.952665
0.952665
0.952666
0.952666
0.952667
0.952668
0.952668
0.952669
0.952669
0.95267
0.952671
0.952671
0.952672
0.952672
0.952673
0.952674
0.952674
0.952675
0.952675
0.952676
0.952677
0.952677
0.952678
0.952678
0.952679
0.95268
0.95268
0.952681
0.952681
0.952682
0.952683
0.952683
0.952684
0.952684
0.952685
0.952686
0.952686
0.952687
0.952687
0.952688
0.952689
0.952689
0.95269
0.95269
0.952691
0.952692
0.952692
0.952693
0.952693
0.952694
0.952695
0.952695
0.952696
0.952696
0.952697
0.952698
0.952698
0.952699
0.9527
0.9527
0.952701
0.952701
0.952702
0.952703
0.952703
0.952704
0.952704
0.952705
0.952706
0.952707
0.952707
0.952707
0.952708
0.952709
0.95271
0.95271
0.95271
0.952711
0.952712
0.952713
0.952714
0.952714
0.952714
0.952715
0.952716
0.952717
0.952717
0.952717
0.952718
0.952719
0.95272
0.95272
0.952721
0.952721
0.952722
0.952723
0.952723
0.952724
0.952724
0.952725
0.952726
0.952726
0.952727
0.952728
0.952728
0.952729
0.952729
0.95273
0.952731
0.952732
0.952732
0.952732
0.952733
0.952734
0.952735
0.952736
0.952736
0.952736
0.952737
0.952738
0.952739
0.952739
0.95274
0.95274
0.952741
0.952742
0.952742
0.952743
0.952744
0.952744
0.952745
0.952745
0.952746
0.952747
0.952748
0.952748
0.952748
0.952749
0.95275
0.952751
0.952752
0.952752
0.952753
0.952753
0.952754
0.952755
0.952755
0.952756
0.952757
0.952757
0.952758
0.952758
0.952759
0.95276
0.952761
0.952762
0.952762
0.952762
0.952763
0.952764
0.952765
0.952765
0.952766
0.952766
0.952767
0.952768
0.952768
0.952769
0.95277
0.952771
0.952771
0.952771
0.952772
0.952773
0.952774
0.952775
0.952775
0.952776
0.952776
0.952777
0.952778
0.952778
0.952779
0.95278
0.952781
0.952781
0.952781
0.952782
0.952783
0.952784
0.952785
0.952785
0.952786
0.952786
0.952787
0.952788
0.952788
0.952789
0.95279
0.952791
0.952792
0.952792
0.952792
0.952793
0.952794
0.952795
0.952795
0.952796
0.952797
0.952797
0.952798
0.952798
0.952799
0.9528
0.952801
0.952802
0.952802
0.952803
0.952803
0.952804
0.952805
0.952805
0.952806
0.952807
0.952808
0.952809
0.952809
0.952809
0.95281
0.952811
0.952812
0.952812
0.952813
0.952814
0.952815
0.952815
0.952815
0.952816
0.952817
0.952818
0.952819
0.952819
0.95282
0.952821
0.952822
0.952822
0.952822
0.952823
0.952824
0.952825
0.952826
0.952826
0.952827
0.952828
0.952829
0.952829
0.952829
0.95283
0.952831
0.952832
0.952833
0.952833
0.952834
0.952835
0.952836
0.952836
0.952836
0.952837
0.952838
0.952839
0.95284
0.95284
0.952841
0.952842
0.952843
0.952844
0.952844
0.952844
0.952845
0.952846
0.952847
0.952847
0.952848
0.952849
0.95285
0.952851
0.952851
0.952852
0.952852
0.952853
0.952854
0.952854
0.952855
0.952856
0.952857
0.952858
0.952858
0.952859
0.95286
0.95286
0.952861
0.952861
0.952862
0.952863
0.952864
0.952865
0.952865
0.952866
0.952867
0.952868
0.952869
0.952869
0.95287
0.95287
0.952871
0.952872
0.952872
0.952873
0.952874
0.952875
0.952876
0.952876
0.952877
0.952878
0.952879
0.95288
0.95288
0.95288
0.952881
0.952882
0.952883
0.952883
0.952884
0.952885
0.952886
0.952887
0.952887
0.952888
0.952889
0.95289
0.952891
0.952891
0.952892
0.952892
0.952893
0.952894
0.952894
0.952895
0.952896
0.952897
0.952898
0.952898
0.952899
0.9529
0.952901
0.952902
0.952902
0.952903
0.952904
0.952905
0.952905
0.952905
0.952906
0.952907
0.952908
0.952909
0.952909
0.95291
0.952911
0.952912
0.952913
0.952913
0.952914
0.952915
0.952916
0.952917
0.952917
0.952918
0.952919
0.95292
0.952921
0.952921
0.952921
0.952922
0.952923
0.952924
0.952924
0.952925
0.952926
0.952927
0.952928
0.952928
0.952929
0.95293
0.952931
0.952932
0.952932
0.952933
0.952934
0.952935
0.952936
0.952936
0.952937
0.952938
0.952939
0.95294
0.95294
0.952941
0.952942
0.952942
0.952943
0.952943
0.952944
0.952945
0.952946
0.952947
0.952947
0.952948
0.952949
0.95295
0.952951
0.952951
0.952952
0.952953
0.952954
0.952955
0.952955
0.952956
0.952957
0.952958
0.952959
0.952959
0.95296
0.952961
0.952962
0.952963
0.952963
0.952964
0.952965
0.952966
0.952967
0.952967
0.952968
0.952969
0.95297
0.952971
0.952971
0.952972
0.952973
0.952974
0.952975
0.952975
0.952976
0.952977
0.952978
0.952979
0.952979
0.95298
0.952981
0.952982
0.952983
0.952983
0.952984
0.952985
0.952986
0.952987
0.952987
0.952988
0.952989
0.95299
0.952991
0.952991
0.952992
0.952993
0.952994
0.952995
0.952995
0.952996
0.952997
0.952998
0.952999
0.952999
0.953
0.953001
0.953002
0.953003
0.953003
0.953004
0.953005
0.953006
0.953007
0.953007
0.953008
0.953009
0.95301
0.953011
0.953011
0.953012
0.953013
0.953014
0.953015
0.953015
0.953016
0.953017
0.953018
0.953019
0.953019
0.95302
0.953021
0.953022
0.953023
0.953023
0.953024
0.953025
0.953026
0.953027
0.953027
0.953028
0.953029
0.95303
0.953031
0.953031
0.953032
0.953033
0.953034
0.953035
0.953035
0.953036
0.953037
0.953038
0.953039
0.953039
0.95304
0.953041
0.953042
0.953043
0.953043
0.953044
0.953045
0.953047
0.953048
0.953048
0.953049
0.95305
0.953051
0.953052
0.953052
0.953053
0.953054
0.953055
0.953056
0.953056
0.953057
0.953058
0.953059
0.95306
0.95306
0.953061
0.953062
0.953063
0.953064
0.953064
0.953065
0.953066
0.953067
0.953068
0.953068
0.95307
0.953071
0.953072
0.953073
0.953073
0.953074
0.953075
0.953076
0.953077
0.953077
0.953078
0.953079
0.95308
0.953081
0.953081
0.953082
0.953083
0.953084
0.953085
0.953085
0.953087
0.953088
0.953089
0.95309
0.95309
0.953091
0.953092
0.953093
0.953094
0.953094
0.953095
0.953096
0.953097
0.953098
0.953098
0.953099
0.9531
0.953102
0.953103
0.953103
0.953104
0.953105
0.953106
0.953107
0.953107
0.953108
0.953109
0.95311
0.953111
0.953111
0.953112
0.953113
0.953115
0.953116
0.953116
0.953117
0.953118
0.953119
0.95312
0.95312
0.953121
0.953122
0.953123
0.953124
0.953124
0.953125
0.953127
0.953128
0.953129
0.953129
0.95313
0.953131
0.953132
0.953133
0.953133
0.953134
0.953135
0.953136
0.953137
0.953137
0.953139
0.95314
0.953141
0.953142
0.953142
0.953143
0.953144
0.953145
0.953146
0.953146
0.953147
0.953149
0.95315
0.953151
0.953151
0.953152
0.953153
0.953154
0.953155
0.953155
0.953156
0.953157
0.953159
0.95316
0.95316
0.953161
0.953162
0.953163
0.953164
0.953164
0.953165
0.953166
0.953168
0.953169
0.953169
0.95317
0.953171
0.953172
0.953173
0.953173
0.953174
0.953175
0.953177
0.953178
0.953178
0.953179
0.95318
0.953181
0.953182
0.953182
0.953183
0.953184
0.953186
0.953187
0.953187
0.953188
0.953189
0.95319
0.953191
0.953191
0.953192
0.953194
0.953195
0.953196
0.953196
0.953197
0.953198
0.953199
0.9532
0.9532
0.953202
0.953203
0.953204
0.953205
0.953205
0.953206
0.953207
0.953208
0.95321
0.95321
0.953211
0.953212
0.953213
0.953214
0.953214
0.953215
0.953216
0.953218
0.953219
0.953219
0.95322
0.953221
0.953222
0.953223
0.953223
0.953225
0.953226
0.953227
0.953228
0.953228
0.953229
0.95323
0.953232
0.953233
0.953233
0.953234
0.953235
0.953236
0.953237
0.953237
0.953239
0.95324
0.953241
0.953242
0.953242
0.953243
0.953244
0.953246
0.953247
0.953247
0.953248
0.953249
0.95325
0.953251
0.953251
0.953253
0.953254
0.953255
0.953256
0.953256
0.953257
0.953259
0.95326
0.953261
0.953261
0.953262
0.953263
0.953264
0.953266
0.953266
0.953267
0.953268
0.953269
0.95327
0.95327
0.953272
0.953273
0.953274
0.953275
0.953275
0.953276
0.953278
0.953279
0.95328
0.95328
0.953281
0.953282
0.953284
0.953285
0.953285
0.953286
0.953287
0.953288
0.95329
0.95329
0.953291
0.953292
0.953293
0.953294
0.953294
0.953296
0.953297
0.953298
0.953299
0.953299
0.9533
0.953302
0.953303
0.953304
0.953304
0.953305
0.953306
0.953308
0.953309
0.953309
0.95331
0.953311
0.953313
0.953314
0.953314
0.953315
0.953316
0.953317
0.953319
0.953319
0.95332
0.953321
0.953322
0.953324
0.953324
0.953325
0.953326
0.953327
0.953328
0.953328
0.95333
0.953331
0.953332
0.953333
0.953333
0.953335
0.953336
0.953337
0.953338
0.953338
0.95334
0.953341
0.953342
0.953343
0.953343
0.953345
0.953346
0.953347
0.953348
0.953348
0.953349
0.953351
0.953352
0.953353
0.953353
0.953354
0.953356
0.953357
0.953358
0.953358
0.953359
0.953361
0.953362
0.953363
0.953363
0.953364
0.953366
0.953367
0.953368
0.953368
0.953369
0.953371
0.953372
0.953373
0.953373
0.953374
0.953376
0.953377
0.953378
0.953378
0.953379
0.953381
0.953382
0.953383
0.953383
0.953385
0.953386
0.953387
0.953388
0.953388
0.95339
0.953391
0.953392
0.953393
0.953393
0.953395
0.953396
0.953397
0.953399
0.953399
0.9534
0.953401
0.953402
0.953404
0.953404
0.953405
0.953406
0.953407
0.953409
0.953409
0.95341
0.953411
0.953413
0.953414
0.953414
0.953415
0.953416
0.953418
0.953419
0.953419
0.95342
0.953422
0.953423
0.953424
0.953424
0.953425
0.953427
0.953428
0.953429
0.953429
0.953431
0.953432
0.953433
0.953434
0.953434
0.953436
0.953437
0.953438
0.95344
0.95344
0.953441
0.953442
0.953444
0.953445
0.953445
0.953446
0.953447
0.953449
0.95345
0.95345
0.953451
0.953453
0.953454
0.953455
0.953455
0.953457
0.953458
0.953459
0.953461
0.953461
0.953462
0.953463
0.953464
0.953466
0.953466
0.953467
0.953468
0.95347
0.953471
0.953471
0.953472
0.953474
0.953475
0.953476
0.953476
0.953478
0.953479
0.95348
0.953482
0.953482
0.953483
0.953484
0.953486
0.953487
0.953487
0.953488
0.95349
0.953491
0.953492
0.953492
0.953494
0.953495
0.953496
0.953498
0.953498
0.953499
0.9535
0.953502
0.953503
0.953503
0.953504
0.953506
0.953507
0.953508
0.953508
0.95351
0.953511
0.953512
0.953514
0.953514
0.953515
0.953516
0.953518
0.953519
0.953519
0.95352
0.953522
0.953523
0.953524
0.953524
0.953526
0.953527
0.953528
0.95353
0.95353
0.953531
0.953533
0.953534
0.953535
0.953535
0.953537
0.953538
0.953539
0.953541
0.953541
0.953542
0.953543
0.953545
0.953546
0.953546
0.953548
0.953549
0.95355
0.953552
0.953552
0.953553
0.953554
0.953556
0.953557
0.953557
0.953558
0.95356
0.953561
0.953563
0.953563
0.953564
0.953565
0.953567
0.953568
0.953568
0.953569
0.953571
0.953572
0.953574
0.953574
0.953575
0.953576
0.953578
0.953579
0.953579
0.953581
0.953582
0.953583
0.953585
0.953585
0.953586
0.953587
0.953589
0.95359
0.95359
0.953592
0.953593
0.953594
0.953596
0.953596
0.953597
0.953599
0.9536
0.953601
0.953601
0.953603
0.953604
0.953606
0.953607
0.953607
0.953608
0.95361
0.953611
0.953613
0.953613
0.953614
0.953615
0.953617
0.953618
0.953618
0.95362
0.953621
0.953622
0.953624
0.953624
0.953625
0.953627
0.953628
0.953629
0.953629
0.953631
0.953632
0.953634
0.953635
0.953635
0.953637
0.953638
0.953639
0.953641
0.953641
0.953642
0.953644
0.953645
0.953647
0.953647
0.953648
0.953649
0.953651
0.953652
0.953652
0.953654
0.953655
0.953657
0.953658
0.953658
0.953659
0.953661
0.953662
0.953664
0.953664
0.953665
0.953667
0.953668
0.953669
0.953669
0.953671
0.953672
0.953674
0.953675
0.953675
0.953677
0.953678
0.95368
0.953681
0.953681
0.953682
0.953684
0.953685
0.953687
0.953687
0.953688
0.95369
0.953691
0.953693
0.953693
0.953694
0.953695
0.953697
0.953698
0.953698
0.9537
0.953701
0.953703
0.953704
0.953704
0.953706
0.953707
0.953709
0.95371
0.95371
0.953711
0.953713
0.953714
0.953716
0.953716
0.953717
0.953719
0.95372
0.953722
0.953722
0.953723
0.953725
0.953726
0.953728
0.953728
0.953729
0.953731
0.953732
0.953734
0.953734
0.953735
0.953736
0.953738
0.953739
0.953739
0.953741
0.953742
0.953744
0.953745
0.953745
0.953747
0.953748
0.95375
0.953751
0.953751
0.953753
0.953754
0.953756
0.953757
0.953757
0.953759
0.95376
0.953762
0.953763
0.953763
0.953765
0.953766
0.953768
0.953769
0.953769
0.953771
0.953772
0.953774
0.953775
0.953775
0.953777
0.953778
0.95378
0.953781
0.953781
0.953783
0.953784
0.953786
0.953787
0.953787
0.953789
0.95379
0.953792
0.953793
0.953793
0.953795
0.953796
0.953798
0.953799
0.953799
0.953801
0.953802
0.953804
0.953805
0.953805
0.953807
0.953808
0.95381
0.953811
0.953811
0.953813
0.953815
0.953816
0.953818
0.953818
0.953819
0.953821
0.953822
0.953824
0.953824
0.953825
0.953827
0.953828
0.95383
0.95383
0.953831
0.953833
0.953834
0.953836
0.953836
0.953837
0.953839
0.953841
0.953842
0.953842
0.953844
0.953845
0.953847
0.953848
0.953848
0.95385
0.953851
0.953853
0.953854
0.953854
0.953856
0.953858
0.953859
0.953861
0.953861
0.953862
0.953864
0.953865
0.953867
0.953867
0.953868
0.95387
0.953871
0.953873
0.953873
0.953875
0.953876
0.953878
0.953879
0.953879
0.953881
0.953882
0.953884
0.953886
0.953886
0.953887
0.953889
0.95389
0.953892
0.953892
0.953893
0.953895
0.953896
0.953898
0.953898
0.9539
0.953901
0.953903
0.953904
0.953904
0.953906
0.953907
0.953909
0.953911
0.953911
0.953912
0.953914
0.953915
0.953917
0.953917
0.953919
0.95392
0.953922
0.953923
0.953923
0.953925
0.953926
0.953928
0.95393
0.95393
0.953931
0.953933
0.953934
0.953936
0.953936
0.953938
0.953939
0.953941
0.953942
0.953942
0.953944
0.953946
0.953947
0.953949
0.953949
0.95395
0.953952
0.953954
0.953955
0.953955
0.953957
0.953958
0.95396
0.953962
0.953962
0.953963
0.953965
0.953966
0.953968
0.953968
0.95397
0.953971
0.953973
0.953974
0.953974
0.953976
0.953978
0.953979
0.953981
0.953981
0.953983
0.953984
0.953986
0.953987
0.953987
0.953989
0.953991
0.953992
0.953994
0.953994
0.953996
0.953997
0.953999
0.954
0.954
0.954002
0.954004
0.954005
0.954007
0.954007
0.954009
0.95401
0.954012
0.954013
0.954013
0.954015
0.954017
0.954018
0.95402
0.95402
0.954022
0.954023
0.954025
0.954027
0.954027
0.954028
0.95403
0.954032
0.954033
0.954033
0.954035
0.954036
0.954038
0.95404
0.95404
0.954041
0.954043
0.954045
0.954046
0.954046
0.954048
0.95405
0.954051
0.954053
0.954053
0.954055
0.954056
0.954058
0.95406
0.95406
0.954061
0.954063
0.954065
0.954066
0.954066
0.954068
0.95407
0.954071
0.954073
0.954073
0.954075
0.954076
0.954078
0.95408
0.95408
0.954081
0.954083
0.954085
0.954086
0.954086
0.954088
0.95409
0.954091
0.954093
0.954093
0.954095
0.954096
0.954098
0.9541
0.9541
0.954101
0.954103
0.954105
0.954107
0.954107
0.954108
0.95411
0.954112
0.954113
0.954113
0.954115
0.954117
0.954118
0.95412
0.95412
0.954122
0.954123
0.954125
0.954127
0.954127
0.954129
0.95413
0.954132
0.954134
0.954134
0.954135
0.954137
0.954139
0.95414
0.95414
0.954142
0.954144
0.954146
0.954147
0.954147
0.954149
0.954151
0.954152
0.954154
0.954154
0.954156
0.954158
0.954159
0.954161
0.954161
0.954163
0.954164
0.954166
0.954168
0.954168
0.95417
0.954171
0.954173
0.954175
0.954175
0.954177
0.954178
0.95418
0.954182
0.954182
0.954183
0.954185
0.954187
0.954189
0.954189
0.95419
0.954192
0.954194
0.954196
0.954196
0.954197
0.954199
0.954201
0.954203
0.954203
0.954204
0.954206
0.954208
0.954209
0.954209
0.954211
0.954213
0.954215
0.954216
0.954216
0.954218
0.95422
0.954222
0.954223
0.954223
0.954225
0.954227
0.954229
0.95423
0.95423
0.954232
0.954234
0.954236
0.954238
0.954238
0.954239
0.954241
0.954243
0.954245
0.954245
0.954246
0.954248
0.95425
0.954252
0.954252
0.954253
0.954255
0.954257
0.954259
0.954259
0.95426
0.954262
0.954264
0.954266
0.954266
0.954268
0.954269
0.954271
0.954273
0.954273
0.954275
0.954276
0.954278
0.95428
0.95428
0.954282
0.954284
0.954285
0.954287
0.954287
0.954289
0.954291
0.954293
0.954294
0.954294
0.954296
0.954298
0.9543
0.954301
0.954301
0.954303
0.954305
0.954307
0.954309
0.954309
0.95431
0.954312
0.954314
0.954316
0.954316
0.954318
0.954319
0.954321
0.954323
0.954323
0.954325
0.954327
0.954328
0.95433
0.95433
0.954332
0.954334
0.954336
0.954338
0.954338
0.954339
0.954341
0.954343
0.954345
0.954345
0.954347
0.954348
0.95435
0.954352
0.954352
0.954354
0.954356
0.954358
0.954359
0.954359
0.954361
0.954363
0.954365
0.954367
0.954367
0.954369
0.95437
0.954372
0.954374
0.954374
0.954376
0.954378
0.95438
0.954381
0.954381
0.954383
0.954385
0.954387
0.954389
0.954389
0.954391
0.954392
0.954394
0.954396
0.954396
0.954398
0.9544
0.954402
0.954403
0.954403
0.954405
0.954407
0.954409
0.954411
0.954411
0.954413
0.954415
0.954416
0.954418
0.954418
0.95442
0.954422
0.954424
0.954426
0.954426
0.954428
0.954429
0.954431
0.954433
0.954433
0.954435
0.954437
0.954439
0.954441
0.954441
0.954443
0.954444
0.954446
0.954448
0.954448
0.95445
0.954452
0.954454
0.954456
0.954456
0.954457
0.954459
0.954461
0.954463
0.954463
0.954465
0.954467
0.954469
0.954471
0.954471
0.954473
0.954474
0.954476
0.954478
0.954478
0.95448
0.954482
0.954484
0.954486
0.954486
0.954488
0.95449
0.954491
0.954493
0.954493
0.954495
0.954497
0.954499
0.954501
0.954501
0.954503
0.954505
0.954507
0.954509
0.954509
0.95451
0.954512
0.954514
0.954516
0.954516
0.954518
0.95452
0.954522
0.954524
0.954524
0.954526
0.954528
0.95453
0.954531
0.954531
0.954533
0.954535
0.954537
0.954539
0.954539
0.954541
0.954543
0.954545
0.954547
0.954547
0.954549
0.954551
0.954553
0.954555
0.954555
0.954556