<?xml version="1.0"?>
<VTKFile type="UnstructuredGrid" version="0.1" byte_order="LittleEndian">
<UnstructuredGrid>
<Piece NumberOfPoints="5000" NumberOfCells="4000">
<PointData Scalars="Reaction 0">
<DataArray type="Float32" Name="Reaction 0" format="ascii">
0.442961
0.442961
0.442961
0.442961
0.442961
0.442961
0.442961
0.442961
0.442962
0.442962
0.442962
0.442962
0.442962
0.442963
0.442963
0.442963
0.442963
0.442964
0.442964
0.442965
0.442965
0.442965
0.442966
0.442966
0.442967
0.442967
0.442967
0.442968
0.442969
0.442969
0.442969
0.44297
0.442971
0.442972
0.442972
0.442972
0.442973
0.442974
0.442975
0.442976
0.442976
0.442977
0.442978
0.442979
0.44298
0.44298
0.442981
0.442982
0.442983
0.442984
0.442984
0.442985
0.442987
0.442988
0.442989
0.442989
0.44299
0.442992
0.442993
0.442994
0.442994
0.442996
0.442997
0.442999
0.443
0.443
0.443002
0.443003
0.443005
0.443007
0.443007
0.443008
0.44301
0.443012
0.443013
0.443013
0.443015
0.443017
0.443019
0.443021
0.443021
0.443022
0.443024
0.443026
0.443028
0.443028
0.44303
0.443032
0.443034
0.443036
0.443036
0.443038
0.443041
0.443043
0.443045
0.443045
0.443047
0.443049
0.443052
0.443054
0.443054
0.443056
0.443059
0.443061
0.443064
0.443064
0.443066
0.443069
0.443071
0.443074
0.443074
0.443076
0.443079
0.443081
0.443084
0.443084
0.443087
0.44309
0.443092
0.443095
0.443095
0.443098
0.443101
0.443104
0.443107
0.443107
0.443109
0.443112
0.443115
0.443118
0.443118
0.443121
0.443125
0.443128
0.443131
0.443131
0.443134
0.443137
0.44314
0.443144
0.443144
0.443147
0.44315
0.443153
0.443157
0.443157
0.44316
0.443164
0.443167
0.443171
0.443171
0.443174
0.443178
0.443181
0.443185
0.443185
0.443188
0.443192
0.443196
0.443199
0.443199
0.443203
0.443207
0.443211
0.443215
0.443215
0.443218
0.443222
0.443226
0.44323
0.44323
0.443234
0.443238
0.443242
0.443246
0.443246
0.44325
0.443255
0.443259
0.443263
0.443263
0.443267
0.443271
0.443276
0.44328
0.44328
0.443284
0.443289
0.443293
0.443297
0.443297
0.443302
0.443306
0.443311
0.443315
0.443315
0.44332
0.443324
0.443329
0.443334
0.443334
0.443338
0.443343
0.443348
0.443353
0.443353
0.443357
0.443362
0.443367
0.443372
0.443372
0.443377
0.443382
0.443387
0.443392
0.443392
0.443397
0.443402
0.443407
0.443412
0.443412
0.443417
0.443422
0.443428
0.443433
0.443433
0.443438
0.443443
0.443449
0.443454
0.443454
0.443459
0.443465
0.44347
0.443476
0.443476
0.443481
0.443487
0.443492
0.443498
0.443498
0.443503
0.443509
0.443515
0.44352
0.44352
0.443526
0.443532
0.443538
0.443543
0.443543
0.443549
0.443555
0.443561
0.443567
0.443567
0.443573
0.443579
0.443585
0.443591
0.443591
0.443597
0.443603
0.443609
0.443615
0.443615
0.443622
0.443628
0.443634
0.44364
0.44364
0.443647
0.443653
0.443659
0.443666
0.443666
0.443672
0.443679
0.443685
0.443692
0.443692
0.443698
0.443705
0.443711
0.443718
0.443718
0.443725
0.443731
0.443738
0.443745
0.443745
0.443752
0.443758
0.443765
0.443772
0.443772
0.443779
0.443786
0.443793
0.4438
0.4438
0.443807
0.443814
0.443821
0.443828
0.443828
0.443835
0.443842
0.44385
0.443857
0.443857
0.443864
0.443871
0.443879
0.443886
0.443886
0.443893
0.443901
0.443908
0.443915
0.443915
0.443923
0.44393
0.443938
0.443946
0.443946
0.443953
0.443961
0.443968
0.443976
0.443976
0.443984
0.443992
0.443999
0.444007
0.444007
0.444015
0.444023
0.444031
0.444039
0.444039
0.444047
0.444054
0.444062
0.444071
0.444071
0.444079
0.444087
0.444095
0.444103
0.444103
0.444111
0.444119
0.444128
0.444136
0.444136
0.444144
0.444152
0.444161
0.444169
0.444169
0.444178
0.444186
0.444194
0.444203
0.444203
0.444211
0.44422
0.444229
0.444237
0.444237
0.444246
0.444255
0.444263
0.444272
0.444272
0.444281
0.44429
0.444298
0.444307
0.444307
0.444316
0.444325
0.444334
0.444343
0.444343
0.444352
0.444361
0.44437
0.444379
0.444379
0.444388
0.444397
0.444406
0.444416
0.444416
0.444425
0.444434
0.444443
0.444453
0.444453
0.444462
0.444471
0.444481
0.44449
0.44449
0.4445
0.444509
0.444519
0.444528
0.444528
0.444538
0.444547
0.444557
0.444567
0.444567
0.444576
0.444586
0.444596
0.444606
0.444606
0.444615
0.444625
0.444635
0.444645
0.444645
0.444655
0.444665
0.444675
0.444685
0.444685
0.444695
0.444705
0.444715
0.444725
0.444725
0.444735
0.444746
0.444756
0.444766
0.444766
0.444776
0.444787
0.444797
0.444807
0.444807
0.444818
0.444828
0.444839
0.444849
0.444849
0.44486
0.44487
0.444881
0.444891
0.444891
0.444902
0.444913
0.444923
0.444934
0.444934
0.444945
0.444956
0.444966
0.444977
0.444977
0.444988
0.444999
0.44501
0.445021
0.445021
0.445032
0.445043
0.445054
0.445065
0.445065
0.445076
0.445087
0.445098
0.445109
0.445109
0.445121
0.445132
0.445143
0.445154
0.445154
0.445166
0.445177
0.445188
0.4452
0.4452
0.445211
0.445223
0.445234
0.445246
0.445246
0.445257
0.445269
0.445281
0.445292
0.445292
0.445304
0.445316
0.445327
0.445339
0.445339
0.445351
0.445363
0.445375
0.445387
0.445387
0.445398
0.44541
0.445422
0.445434
0.445434
0.445446
0.445458
0.445471
0.445483
0.445483
0.445495
0.445507
0.445519
0.445531
0.445531
0.445544
0.445556
0.445568
0.445581
0.445581
0.445593
0.445605
0.445618
0.44563
0.44563
0.445643
0.445655
0.445668
0.445681
0.445681
0.445693
0.445706
0.445718
0.445731
0.445731
0.445744
0.445757
0.445769
0.445782
0.445782
0.445795
0.445808
0.445821
0.445834
0.445834
0.445847
0.44586
0.445873
0.445886
0.445886
0.445899
0.445912
0.445925
0.445938
0.445938
0.445952
0.445965
0.445978
0.445991
0.445991
0.446005
0.446018
0.446031
0.446045
0.446045
0.446058
0.446072
0.446085
0.446099
0.446099
0.446112
0.446126
0.446139
0.446153
0.446153
0.446167
0.44618
0.446194
0.446208
0.446208
0.446222
0.446235
0.446249
0.446263
0.446263
0.446277
0.446291
0.446305
0.446319
0.446319
0.446333
0.446347
0.446361
0.446375
0.446375
0.446389
0.446404
0.446418
0.446432
0.446432
0.446446
0.44646
0.446475
0.446489
0.446489
0.446504
0.446518
0.446532
0.446547
0.446547
0.446561
0.446576
0.44659
0.446605
0.446605
0.44662
0.446634
0.446649
0.446664
0.446664
0.446678
0.446693
0.446708
0.446723
0.446723
0.446737
0.446752
0.446767
0.446782
0.446782
0.446797
0.446812
0.446827
0.446842
0.446842
0.446857
0.446872
0.446887
0.446903
0.446903
0.446918
0.446933
0.446948
0.446964
0.446964
0.446979
0.446994
0.44701
0.447025
0.447025
0.44704
0.447056
0.447071
0.447087
0.447087
0.447102
0.447118
0.447134
0.447149
0.447149
0.447165
0.44718
0.447196
0.447212
0.447212
0.447228
0.447244
0.447259
0.447275
0.447275
0.447291
0.447307
0.447323
0.447339
0.447339
0.447355
0.447371
0.447387
0.447403
0.447403
0.447419
0.447436
0.447452
0.447468
0.447468
0.447484
0.4475
0.447517
0.447533
0.447533
0.447549
0.447566
0.447582
0.447599
0.447599
0.447615
0.447632
0.447648
0.447665
0.447665
0.447681
0.447698
0.447715
0.447731
0.447731
0.447748
0.447765
0.447782
0.447798
0.447798
0.447815
0.447832
0.447849
0.447866
0.447866
0.447883
0.4479
0.447917
0.447934
0.447934
0.447951
0.447968
0.447985
0.448002
0.448002
0.44802
0.448037
0.448054
0.448071
0.448071
0.448089
0.448106
0.448123
0.448141
0.448141
0.448158
0.448175
0.448193
0.44821
0.44821
0.448228
0.448246
0.448263
0.448281
0.448281
0.448298
0.448316
0.448334
0.448352
0.448352
0.448369
0.448387
0.448405
0.448423
0.448423
0.448441
0.448459
0.448477
0.448495
0.448495
0.448513
0.448531
0.448549
0.448567
0.448567
0.448585
0.448603
0.448621
0.448639
0.448639
0.448658
0.448676
0.448694
0.448713
0.448713
0.448731
0.448749
0.448768
0.448786
0.448786
0.448805
0.448823
0.448842
0.44886
0.44886
0.448879
0.448898
0.448916
0.448935
0.448935
0.448954
0.448972
0.448991
0.44901
0.44901
0.449029
0.449048
0.449066
0.449085
0.449085
0.449104
0.449123
0.449142
0.449161
0.449161
0.44918
0.4492
0.449219
0.449238
0.449238
0.449257
0.449276
0.449295
0.449315
0.449315
0.449334
0.449353
0.449373
0.449392
0.449392
0.449412
0.449431
0.44945
0.44947
0.44947
0.449489
0.449509
0.449529
0.449548
0.449548
0.449568
0.449588
0.449607
0.449627
0.449627
0.449647
0.449667
0.449686
0.449706
0.449706
0.449726
0.449746
0.449766
0.449786
0.449786
0.449806
0.449826
0.449846
0.449866
0.449866
0.449886
0.449907
0.449927
0.449947
0.449947
0.449967
0.449987
0.450008
0.450028
0.450028
0.450048
0.450069
0.450089
0.45011
0.45011
0.45013
0.450151
0.450171
0.450192
0.450192
0.450212
0.450233
0.450254
0.450274
0.450274
0.450295
0.450316
0.450337
0.450357
0.450357
0.450378
0.450399
0.45042
0.450441
0.450441
0.450462
0.450483
0.450504
0.450525
0.450525
0.450546
0.450567
0.450588
0.450609
0.450609
0.45063
0.450652
0.450673
0.450694
0.450694
0.450716
0.450737
0.450758
0.45078
0.45078
0.450801
0.450822
0.450844
0.450865
0.450865
0.450887
0.450909
0.45093
0.450952
0.450952
0.450973
0.450995
0.451017
0.451039
0.451039
0.45106
0.451082
0.451104
0.451126
0.451126
0.451148
0.45117
0.451192
0.451214
0.451214
0.451236
0.451258
0.45128
0.451302
0.451302
0.451324
0.451346
0.451368
0.451391
0.451391
0.451413
0.451435
0.451457
0.45148
0.45148
0.451502
0.451524
0.451547
0.451569
0.451569
0.451592
0.451614
0.451637
0.451659
0.451659
0.451682
0.451705
0.451727
0.45175
0.45175
0.451773
0.451796
0.451818
0.451841
0.451841
0.451864
0.451887
0.45191
0.451933
0.451933
0.451956
0.451979
0.452002
0.452025
0.452025
0.452048
0.452071
0.452094
0.452117
0.452117
0.45214
0.452164
0.452187
0.45221
0.45221
0.452233
0.452257
0.45228
0.452303
0.452303
0.452327
0.45235
0.452374
0.452397
0.452397
0.452421
0.452444
0.452468
0.452492
0.452492
0.452515
0.452539
0.452563
0.452587
0.452587
0.45261
0.452634
0.452658
0.452682
0.452682
0.452706
0.45273
0.452754
0.452778
0.452778
0.452802
0.452826
0.45285
0.452874
0.452874
0.452898
0.452922
0.452946
0.452971
0.452971
0.452995
0.453019
0.453044
0.453068
0.453068
0.453092
0.453117
0.453141
0.453166
0.453166
0.45319
0.453215
0.453239
0.453264
0.453264
0.453288
0.453313
0.453338
0.453362
0.453362
0.453387
0.453412
0.453437
0.453461
0.453461
0.453486
0.453511
0.453536
0.453561
0.453561
0.453586
0.453611
0.453636
0.453661
0.453661
0.453686
0.453711
0.453736
0.453762
0.453762
0.453787
0.453812
0.453837
0.453863
0.453863
0.453888
0.453913
0.453939
0.453964
0.453964
0.453989
0.454015
0.45404
0.454066
0.454066
0.454092
0.454117
0.454143
0.454168
0.454168
0.454194
0.45422
0.454246
0.454271
0.454271
0.454297
0.454323
0.454349
0.454375
0.454375
0.454401
0.454427
0.454452
0.454478
0.454478
0.454505
0.454531
0.454557
0.454583
0.454583
0.454609
0.454635
0.454661
0.454688
0.454688
0.454714
0.45474
0.454766
0.454793
0.454793
0.454819
0.454846
0.454872
0.454899
0.454899
0.454925
0.454952
0.454978
0.455005
0.455005
0.455031
0.455058
0.455085
0.455112
0.455112
0.455138
0.455165
0.455192
0.455219
0.455219
0.455246
0.455272
0.455299
0.455326
0.455326
0.455353
0.45538
0.455407
0.455434
0.455434
0.455462
0.455489
0.455516
0.455543
0.455543
0.45557
0.455597
0.455625
0.455652
0.455652
0.455679
0.455707
0.455734
0.455762
0.455762
0.455789
0.455817
0.455844
0.455872
0.455872
0.455899
0.455927
0.455954
0.455982
0.455982
0.45601
0.456038
0.456065
0.456093
0.456093
0.456121
0.456149
0.456177
0.456205
0.456205
0.456232
0.45626
0.456288
0.456316
0.456316
0.456345
0.456373
0.456401
0.456429
0.456429
0.456457
0.456485
0.456513
0.456542
0.456542
0.45657
0.456598
0.456627
0.456655
0.456655
0.456684
0.456712
0.45674
0.456769
0.456769
0.456797
0.456826
0.456855
0.456883
0.456883
0.456912
0.456941
0.456969
0.456998
0.456998
0.457027
0.457056
0.457084
0.457113
0.457113
0.457142
0.457171
0.4572
0.457229
0.457229
0.457258
0.457287
0.457316
0.457345
0.457345
0.457374
0.457404
0.457433
0.457462
0.457462
0.457491
0.45752
0.45755
0.457579
0.457579
0.457608
0.457638
0.457667
0.457697
0.457697
0.457726
0.457756
0.457785
0.457815
0.457815
0.457844
0.457874
0.457904
0.457933
0.457933
0.457963
0.457993
0.458023
0.458053
0.458053
0.458082
0.458112
0.458142
0.458172
0.458172
0.458202
0.458232
0.458262
0.458292
0.458292
0.458322
0.458352
0.458382
0.458413
0.458413
0.458443
0.458473
0.458503
0.458534
0.458534
0.458564
0.458594
0.458625
0.458655
0.458655
0.458685
0.458716
0.458746
0.458777
0.458777
0.458808
0.458838
0.458869
0.458899
0.458899
0.45893
0.458961
0.458992
0.459022
0.459022
0.459053
0.459084
0.459115
0.459146
0.459146
0.459177
0.459208
0.459239
0.45927
0.45927
0.459301
0.459332
0.459363
0.459394
0.459394
0.459425
0.459456
0.459487
0.459519
0.459519
0.45955
0.459581
0.459613
0.459644
0.459644
0.459675
0.459707
0.459738
0.45977
0.45977
0.459801
0.459833
0.459864
0.459896
0.459896
0.459928
0.459959
0.459991
0.460023
0.460023
0.460054
0.460086
0.460118
0.46015
0.46015
0.460182
0.460214
0.460246
0.460278
0.460278
0.46031
0.460342
0.460374
0.460406
0.460406
0.460438
0.46047
0.460502
0.460534
0.460534
0.460567
0.460599
0.460631
0.460664
0.460664
0.460696
0.460728
0.460761
0.460793
0.460793
0.460826
0.460858
0.460891
0.460923
0.460923
0.460956
0.460988
0.461021
0.461054
0.461054
0.461087
0.461119
0.461152
0.461185
0.461185
0.461218
0.461251
0.461283
0.461316
0.461316
0.461349
0.461382
0.461415
0.461448
0.461448
0.461481
0.461515
0.461548
0.461581
0.461581
0.461614
0.461647
0.461681
0.461714
0.461714
0.461747
0.46178
0.461814
0.461847
0.461847
0.461881
0.461914
0.461948
0.461981
0.461981
0.462015
0.462048
0.462082
0.462116
0.462116
0.462149
0.462183
0.462217
0.46225
0.46225
0.462284
0.462318
0.462352
0.462386
0.462386
0.46242
0.462454
0.462488
0.462522
0.462522
0.462556
0.46259
0.462624
0.462658
0.462658
0.462692
0.462726
0.462761
0.462795
0.462795
0.462829
0.462863
0.462898
0.462932
0.462932
0.462967
0.463001
0.463035
0.46307
0.46307
0.463104
0.463139
0.463174
0.463208
0.463208
0.463243
0.463277
0.463312
0.463347
0.463347
0.463382
0.463416
0.463451
0.463486
0.463486
0.463521
0.463556
0.463591
0.463626
0.463626
0.463661
0.463696
0.463731
0.463766
0.463766
0.463801
0.463836
0.463871
0.463907
0.463907
0.463942
0.463977
0.464013
0.464048
0.464048
0.464083
0.464119
0.464154
0.464189
0.464189
0.464225
0.46426
0.464296
0.464332
0.464332
0.464367
0.464403
0.464439
0.464474
0.464474
0.46451
0.464546
0.464581
0.464617
0.464617
0.464653
0.464689
0.464725
0.464761
0.464761
0.464797
0.464833
0.464869
0.464905
0.464905
0.464941
0.464977
0.465013
0.465049
0.465049
0.465086
0.465122
0.465158
0.465194
0.465194
0.465231
0.465267
0.465304
0.46534
0.46534
0.465376
0.465413
0.465449
0.465486
0.465486
0.465523
0.465559
0.465596
0.465632
0.465632
0.465669
0.465706
0.465743
0.465779
0.465779
0.465816
0.465853
0.46589
0.465927
0.465927
0.465964
0.466001
0.466038
0.466075
0.466075
0.466112
0.466149
0.466186
0.466223
0.466223
0.46626
0.466298
0.466335
0.466372
0.466372
0.466409
0.466447
0.466484
0.466521
0.466521
0.466559
0.466596
0.466634
0.466671
0.466671
0.466709
0.466746
0.466784
0.466822
0.466822
0.466859
0.466897
0.466935
0.466972
0.466972
0.46701
0.467048
0.467086
0.467124
0.467124
0.467162
0.4672
0.467238
0.467276
0.467276
0.467314
0.467352
0.46739
0.467428
0.467428
0.467466
0.467504
0.467542
0.467581
0.467581
0.467619
0.467657
0.467695
0.467734
0.467734
0.467772
0.467811
0.467849
0.467888
0.467888
0.467926
0.467965
0.468003
0.468042
0.468042
0.46808
0.468119
0.468158
0.468197
0.468197
0.468235
0.468274
0.468313
0.468352
0.468352
0.468391
0.468429
0.468468
0.468507
0.468507
0.468546
0.468585
0.468624
0.468664
0.468664
0.468703
0.468742
0.468781
0.46882
0.46882
0.468859
0.468899
0.468938
0.468977
0.468977
0.469017
0.469056
0.469096
0.469135
0.469135
0.469174
0.469214
0.469254
0.469293
0.469293
0.469333
0.469372
0.469412
0.469452
0.469452
0.469491
0.469531
0.469571
0.469611
0.469611
0.469651
0.469691
0.46973
0.46977
0.46977
0.46981
0.46985
0.46989
0.46993
0.46993
0.469971
0.470011
0.470051
0.470091
0.470091
0.470131
0.470171
0.470212
0.470252
0.470252
0.470292
0.470333
0.470373
0.470414
0.470414
0.470454
0.470495
0.470535
0.470576
0.470576
0.470616
0.470657
0.470697
0.470738
0.470738
0.470779
0.47082
0.47086
0.470901
0.470901
0.470942
0.470983
0.471024
0.471065
0.471065
0.471106
0.471147
0.471188
0.471229
0.471229
0.47127
0.471311
0.471352
0.471393
0.471393
0.471434
0.471475
0.471517
0.471558
0.471558
0.471599
0.471641
0.471682
0.471723
0.471723
0.471765
0.471806
0.471848
0.471889
0.471889
0.471931
0.471973
0.472014
0.472056
0.472056
0.472097
0.472139
0.472181
0.472223
0.472223
0.472265
0.472306
0.472348
0.47239
0.47239
0.472432
0.472474
0.472516
0.472558
0.472558
0.4726
0.472642
0.472684
0.472726
0.472726
0.472769
0.472811
0.472853
0.472895
0.472895
0.472938
0.47298
0.473022
0.473065
0.473065
0.473107
0.473149
0.473192
0.473234
0.473234
0.473277
0.47332
0.473362
0.473405
0.473405
0.473447
0.47349
0.473533
0.473576
0.473576
0.473618
0.473661
0.473704
0.473747
0.473747
0.47379
0.473833
0.473876
0.473919
0.473919
0.473962
0.474005
0.474048
0.474091
0.474091
0.474134
0.474177
0.474221
0.474264
0.474264
0.474307
0.47435
0.474394
0.474437
0.474437
0.474481
0.474524
0.474567
0.474611
0.474611
0.474655
0.474698
0.474742
0.474785
0.474785
0.474829
0.474873
0.474916
0.47496
0.47496
0.475004
0.475048
0.475091
0.475135
0.475135
0.475179
0.475223
0.475267
0.475311
0.475311
0.475355
0.475399
0.475443
0.475487
0.475487
0.475531
0.475576
0.47562
0.475664
0.475664
0.475708
0.475753
0.475797
0.475841
0.475841
0.475886
0.47593
0.475975
0.476019
0.476019
0.476064
0.476108
0.476153
0.476197
0.476197
0.476242
0.476287
0.476331
0.476376
0.476376
0.476421
0.476465
0.47651
0.476555
0.476555
0.4766
0.476645
0.47669
0.476735
0.476735
0.47678
0.476825
0.47687
0.476915
0.476915
0.47696
0.477005
0.477051
0.477096
0.477096
0.477141
0.477186
0.477232
0.477277
0.477277
0.477322
0.477368
0.477413
0.477459
0.477459
0.477504
0.47755
0.477595
0.477641
0.477641
0.477686
0.477732
0.477778
0.477823
0.477823
0.477869
0.477915
0.477961
0.478007
0.478007
0.478052
0.478098
0.478144
0.47819
0.47819
0.478236
0.478282
0.478328
0.478374
0.478374
0.478421
0.478467
0.478513
0.478559
0.478559
0.478605
0.478652
0.478698
0.478744
0.478744
0.478791
0.478837
0.478883
0.47893
0.47893
0.478976
0.479023
0.479069
0.479116
0.479116
0.479163
0.479209
0.479256
0.479303
0.479303
0.479349
0.479396
0.479443
0.47949
0.47949
0.479537
0.479584
0.47963
0.479677
0.479677
0.479724
0.479771
0.479818
0.479866
0.479866
0.479913
0.47996
0.480007
0.480054
0.480054
0.480101
0.480149
0.480196
0.480243
0.480243
0.480291
0.480338
0.480385
0.480433
0.480433
0.48048
0.480528
0.480575
0.480623
0.480623
0.480671
0.480718
0.480766
0.480814
0.480814
0.480861
0.480909
0.480957
0.481005
0.481005
0.481053
0.4811
0.481148
0.481196
0.481196
0.481244
0.481292
0.48134
0.481388
0.481388
0.481437
0.481485
0.481533
0.481581
0.481581
0.481629
0.481678
0.481726
0.481774
0.481774
0.481823
0.481871
0.481919
0.481968
0.481968
0.482016
0.482065
0.482113
0.482162
0.482162
0.48221
0.482259
0.482308
0.482356
0.482356
0.482405
0.482454
0.482503
0.482552
0.482552
0.4826
0.482649
0.482698
0.482747
0.482747
0.482796
0.482845
0.482894
0.482943
0.482943
0.482992
0.483042
0.483091
0.48314
0.48314
0.483189
0.483238
0.483288
0.483337
0.483337
0.483386
0.483436
0.483485
0.483535
0.483535
0.483584
0.483634
0.483683
0.483733
0.483733
0.483782
0.483832
0.483882
0.483931
0.483931
0.483981
0.484031
0.484081
0.48413
0.48413
0.48418
0.48423
0.48428
0.48433
0.48433
0.48438
0.48443
0.48448
0.48453
0.48453
0.48458
0.48463
0.484681
0.484731
0.484731
0.484781
0.484831
0.484882
0.484932
0.484932
0.484982
0.485033
0.485083
0.485133
0.485133
0.485184
0.485234
0.485285
0.485336
0.485336
0.485386
0.485437
0.485488
0.485538
0.485538
0.485589
0.48564
0.485691
0.485741
0.485741
0.485792
0.485843
0.485894
0.485945
0.485945
0.485996
0.486047
0.486098
0.486149
0.486149
0.4862
0.486251
0.486303
0.486354
0.486354
0.486405
0.486456
0.486508
0.486559
0.486559
0.48661
0.486662
0.486713
0.486765
0.486765
0.486816
0.486868
0.486919
0.486971
0.486971
0.487022
0.487074
0.487126
0.487177
0.487177
0.487229
0.487281
0.487333
0.487384
0.487384
0.487436
0.487488
0.48754
0.487592
0.487592
0.487644
0.487696
0.487748
0.4878
0.4878
0.487852
0.487905
0.487957
0.488009
0.488009
0.488061
0.488113
0.488166
0.488218
0.488218
0.488271
0.488323
0.488375
0.488428
0.488428
0.48848
0.488533
0.488585
0.488638
0.488638
0.488691
0.488743
0.488796
0.488849
0.488849
0.488901
0.488954
0.489007
0.48906
0.48906
0.489113
0.489166
0.489219
0.489272
0.489272
0.489325
0.489378
0.489431
0.489484
0.489484
0.489537
0.48959
0.489643
0.489697
0.489697
0.48975
0.489803
0.489856
0.48991
0.48991
0.489963
0.490017
0.49007
0.490123
0.490123
0.490177
0.490231
0.490284
0.490338
0.490338
0.490391
0.490445
0.490499
0.490552
0.490552
0.490606
0.49066
0.490714
0.490768
0.490768
0.490822
0.490876
0.49093
0.490984
0.490984
0.491038
0.491092
0.491146
0.4912
0.4912
0.491254
0.491308
0.491362
0.491417
0.491417
0.491471
0.491525
0.491579
0.491634
0.491634
0.491688
0.491743
0.491797
0.491852
0.491852
0.491906
0.491961
0.492015
0.49207
0.49207
0.492125
0.492179
0.492234
0.492289
0.492289
0.492344
0.492398
0.492453
0.492508
0.492508
0.492563
0.492618
0.492673
0.492728
0.492728
0.492783
0.492838
0.492893
0.492948
0.492948
0.493003
0.493059
0.493114
0.493169
0.493169
0.493224
0.49328
0.493335
0.493391
0.493391
0.493446
0.493501
0.493557
0.493612
0.493612
0.493668
0.493724
0.493779
0.493835
0.493835
0.493891
0.493946
0.494002
0.494058
0.494058
0.494114
0.494169
0.494225
0.494281
0.494281
0.494337
0.494393
0.494449
0.494505
0.494505
0.494561
0.494617
0.494673
0.49473
0.49473
0.494786
0.494842
0.494898
0.494954
0.494954
0.495011
0.495067
0.495124
0.49518
0.49518
0.495236
0.495293
0.495349
0.495406
0.495406
0.495462
0.495519
0.495576
0.495632
0.495632
0.495689
0.495746
0.495803
0.495859
0.495859
0.495916
0.495973
0.49603
0.496087
0.496087
0.496144
0.496201
0.496258
0.496315
0.496315
0.496372
0.496429
0.496486
0.496544
0.496544
0.496601
0.496658
0.496715
0.496773
0.496773
0.49683
0.496887
0.496945
0.497002
0.497002
0.49706
0.497117
0.497175
0.497232
0.497232
0.49729
0.497348
0.497405
0.497463
0.497463
0.497521
0.497578
0.497636
0.497694
0.497694
0.497752
0.49781
0.497868
0.497926
0.497926
0.497984
0.498042
0.4981
0.498158
0.498158
0.498216
0.498274
0.498332
0.49839
0.49839
0.498449
0.498507
0.498565
0.498624
0.498624
0.498682
0.49874
0.498799
0.498857
0.498857
0.498916
0.498974
0.499033
0.499092
0.499092
0.49915
0.499209
0.499268
0.499326
0.499326
0.499385
0.499444
0.499503
0.499562
0.499562
0.49962
0.499679
0.499738
0.499797
0.499797
0.499856
0.499915
0.499975
0.500034
0.500034
0.500093
0.500152
0.500211
0.50027
0.50027
0.50033
0.500389
0.500448
0.500508
0.500508
0.500567
0.500627
0.500686
0.500746
0.500746
0.500805
0.500865
0.500924
0.500984
0.500984
0.501044
0.501103
0.501163
0.501223
0.501223
0.501283
0.501343
0.501402
0.501462
0.501462
0.501522
0.501582
0.501642
0.501702
0.501702
0.501762
0.501822
0.501883
0.501943
0.501943
0.502003
0.502063
0.502123
0.502184
0.502184
0.502244
0.502304
0.502365
0.502425
0.502425
0.502486
0.502546
0.502607
0.502667
0.502667
0.502728
0.502788
0.502849
0.50291
0.50291
0.50297
0.503031
0.503092
0.503153
0.503153
0.503214
0.503274
0.503335
0.503396
0.503396
0.503457
0.503518
0.503579
0.50364
0.50364
0.503702
0.503763
0.503824
0.503885
0.503885
0.503946
0.504008
0.504069
0.50413
0.50413
0.504192
0.504253
0.504314
0.504376
0.504376
0.504437
0.504499
0.50456
0.504622
0.504622
0.504684
0.504745
0.504807
0.504869
0.504869
0.504931
0.504992
0.505054
0.505116
0.505116
0.505178
0.50524
0.505302
0.505364
0.505364
0.505426
0.505488
0.50555
0.505612
0.505612
0.505674
0.505736
0.505799
0.505861
0.505861
0.505923
0.505985
0.506048
0.50611
0.50611
0.506173
0.506235
0.506298
0.50636
0.50636
0.506423
0.506485
0.506548
0.50661
0.50661
0.506673
0.506736
0.506799
0.506861
0.506861
0.506924
0.506987
0.50705
0.507113
0.507113
0.507176
0.507239
0.507302
0.507365
0.507365
0.507428
0.507491
0.507554
0.507617
0.507617
0.50768
0.507744
0.507807
0.50787
0.50787
0.507934
0.507997
0.50806
0.508124
0.508124
0.508187
0.508251
0.508314
0.508378
0.508378
0.508442
0.508505
0.508569
0.508633
0.508633
0.508696
0.50876
0.508824
0.508888
0.508888
0.508952
0.509015
0.509079
0.509143
0.509143
0.509207
0.509271
0.509335
0.5094
0.5094
0.509464
0.509528
0.509592
0.509656
0.509656
0.509721
0.509785
0.509849
0.509913
0.509913
0.509978
0.510042
0.510107
0.510171
0.510171
0.510236
0.5103
0.510365
0.51043
0.51043
0.510494
0.510559
0.510624
0.510688
0.510688
0.510753
0.510818
0.510883
0.510948
0.510948
0.511013
0.511078
0.511143
0.511208
0.511208
0.511273
0.511338
0.511403
0.511468
0.511468
0.511533
0.511599
0.511664
0.511729
0.511729
0.511794
0.51186
0.511925
0.511991
0.511991
0.512056
0.512122
0.512187
0.512253
0.512253
0.512318
0.512384
0.512449
0.512515
0.512515
0.512581
0.512647
0.512712
0.512778
0.512778
0.512844
0.51291
0.512976
0.513042
0.513042
0.513108
0.513174
0.51324
0.513306
0.513306
0.513372
0.513438
0.513505
0.513571
0.513571
0.513637
0.513703
0.51377
0.513836
0.513836
0.513902
0.513969
0.514035
0.514102
0.514102
0.514168
0.514235
0.514301
0.514368
0.514368
0.514435
0.514501
0.514568
0.514635
0.514635
0.514702
0.514769
0.514835
0.514902
0.514902
0.514969
0.515036
0.515103
0.51517
0.51517
0.515237
0.515304
0.515371
0.515439
0.515439
0.515506
0.515573
0.51564
0.515708
0.515708
0.515775
0.515842
0.51591
0.515977
0.515977
0.516045
0.516112
0.51618
0.516247
0.516247
0.516315
0.516382
0.51645
0.516518
0.516518
0.516585
0.516653
0.516721
0.516789
0.516789
0.516857
0.516925
0.516993
0.517061
0.517061
0.517129
0.517197
0.517265
0.517333
0.517333
0.517401
0.517469
0.517537
0.517606
0.517606
0.517674
0.517742
0.51781
0.517879
0.517879
0.517947
0.518016
0.518084
0.518153
0.518153
0.518221
0.51829
0.518358
0.518427
0.518427
0.518496
0.518564
0.518633
0.518702
0.518702
0.518771
0.51884
0.518908
0.518977
0.518977
0.519046
0.519115
0.519184
0.519253
0.519253
0.519322
0.519392
0.519461
0.51953
0.51953
0.519599
0.519668
0.519738
0.519807
0.519807
0.519876
0.519946
0.520015
0.520085
0.520085
0.520154
0.520224
0.520293
0.520363
0.520363
0.520432
0.520502
0.520572
0.520641
0.520641
0.520711
0.520781
0.520851
0.520921
0.520921
0.520991
0.52106
0.52113
0.5212
0.5212
0.52127
0.521341
0.521411
0.521481
0.521481
0.521551
0.521621
0.521691
0.521762
0.521762
0.521832
0.521902
0.521973
0.522043
0.522043
0.522113
0.522184
0.522254
0.522325
0.522325
0.522396
0.522466
0.522537
0.522608
0.522608
0.522678
0.522749
0.52282
0.522891
0.522891
0.522961
0.523032
0.523103
0.523174
0.523174
0.523245
0.523316
0.523387
0.523458
0.523458
0.523529
0.523601
0.523672
0.523743
0.523743
0.523814
0.523886
0.523957
0.524028
0.524028
0.5241
0.524171
0.524243
0.524314
0.524314
0.524386
0.524457
0.524529
0.5246
0.5246
0.524672
0.524744
0.524815
0.524887
0.524887
0.524959
0.525031
0.525103
0.525175
0.525175
0.525247
0.525319
0.525391
0.525463
0.525463
0.525535
0.525607
0.525679
0.525751
0.525751
0.525823
0.525896
0.525968
0.52604
0.52604
0.526113
0.526185
0.526257
0.52633
0.52633
0.526402
0.526475
0.526547
0.52662
0.52662
0.526693
0.526765
0.526838
0.526911
0.526911
0.526984
0.527056
0.527129
0.527202
0.527202
0.527275
0.527348
0.527421
0.527494
0.527494
0.527567
0.52764
0.527713
0.527786
0.527786
0.52786
0.527933
0.528006
0.528079
0.528079
0.528153
0.528226
0.528299
0.528373
0.528373
0.528446
0.52852
0.528593
0.528667
0.528667
0.52874
0.528814
0.528888
0.528961
0.528961
0.529035
0.529109
0.529183
0.529257
0.529257
0.52933
0.529404
0.529478
0.529552
0.529552
0.529626
0.5297
0.529774
0.529849
0.529849
0.529923
0.529997
0.530071
0.530145
0.530145
0.53022
0.530294
0.530368
0.530443
0.530443
0.530517
0.530592
0.530666
0.530741
0.530741
0.530815
0.53089
0.530964
0.531039
0.531039
0.531114
0.531189
0.531263
0.531338
0.531338
0.531413
0.531488
0.531563
0.531638
0.531638
0.531713
0.531788
0.531863
0.531938
0.531938
0.532013
0.532088
0.532163
0.532239
0.532239
0.532314
0.532389
0.532465
0.53254
0.53254
0.532615
0.532691
0.532766
0.532842
0.532842
0.532917
0.532993
0.533069
0.533144
0.533144
0.53322
0.533296
0.533371
0.533447
0.533447
0.533523
0.533599
0.533675
0.533751
0.533751
0.533827
0.533903
0.533979
0.534055
0.534055
0.534131
0.534207
0.534283
0.534359
0.534359
0.534436
0.534512
0.534588
0.534665
0.534665
0.534741
0.534817
0.534894
0.53497
0.53497
0.535047
0.535123
0.5352
0.535277
0.535277
0.535353
0.53543
0.535507
0.535583
0.535583
0.53566
0.535737
0.535814
0.535891
0.535891
0.535968
0.536045
0.536122
0.536199
0.536199
0.536276
0.536353
0.53643
0.536508
0.536508
0.536585
0.536662
0.536739
0.536817
0.536817
0.536894
0.536971
0.537049
0.537126
0.537126
0.537204
0.537281
0.537359
0.537437
0.537437
0.537514
0.537592
0.53767
0.537747
0.537747
0.537825
0.537903
0.537981
0.538059
0.538059
0.538137
0.538215
0.538293
0.538371
0.538371
0.538449
0.538527
0.538605
0.538683
0.538683
0.538762
0.53884
0.538918
0.538996
0.538996
0.539075
0.539153
0.539232
0.53931
0.53931
0.539389
0.539467
0.539546
0.539624
0.539624
0.539703
0.539782
0.53986
0.539939
0.539939
0.540018
0.540097
0.540176
0.540255
0.540255
0.540333
0.540412
0.540491
0.54057
0.54057
0.54065
0.540729
0.540808
0.540887
0.540887
0.540966
0.541045
0.541125
0.541204
0.541204
0.541283
0.541363
0.541442
0.541522
0.541522
0.541601
0.541681
0.54176
0.54184
0.54184
0.54192
0.541999
0.542079
0.542159
0.542159
0.542239
0.542318
0.542398
0.542478
0.542478
0.542558
0.542638
0.542718
0.542798
0.542798
0.542878
0.542958
0.543038
0.543119
0.543119
0.543199
0.543279
0.543359
0.54344
0.54344
0.54352
0.5436
0.543681
0.543761
0.543761
0.543842
0.543922
0.544003
0.544084
0.544084
0.544164
0.544245
0.544326
0.544406
0.544406
0.544487
0.544568
0.544649
0.54473
0.54473
0.544811
0.544892
0.544973
0.545054
0.545054
0.545135
0.545216
0.545297
0.545378
0.545378
0.54546
0.545541
0.545622
0.545703
0.545703
0.545785
0.545866
0.545948
0.546029
0.546029
0.546111
0.546192
0.546274
0.546355
0.546355
0.546437
0.546519
0.546601
0.546682
0.546682
0.546764
0.546846
0.546928
0.54701
0.54701
0.547092
0.547174
0.547256
0.547338
0.547338
0.54742
0.547502
0.547584
0.547666
0.547666
0.547749
0.547831
0.547913
0.547995
0.547995
0.548078
0.54816
0.548243
0.548325
0.548325
0.548408
0.54849
0.548573
0.548656
0.548656
0.548738
0.548821
0.548904
0.548986
0.548986
0.549069
0.549152
0.549235
0.549318
0.549318
0.549401
0.549484
0.549567
0.54965
0.54965
0.549733
0.549816
0.5499
0.549983
0.549983
0.550066
0.550149
0.550233
0.550316
0.550316
0.550399
0.550483
0.550566
0.55065