<?xml version="1.0"?>
<VTKFile type="UnstructuredGrid" version="0.1" byte_order="LittleEndian">
<UnstructuredGrid>
<Piece NumberOfPoints="5000" NumberOfCells="4000">
<PointData Scalars="Reaction 0">
<DataArray type="Float32" Name="Reaction 0" format="ascii">
0.633721
0.633721
0.633721
0.633721
0.633721
0.633721
0.633721
0.633721
0.633721
0.633721
0.633721
0.633721
0.633721
0.633721
0.633721
0.633721
0.633721
0.633721
0.633721
0.633721
0.633721
0.633721
0.633721
0.633721
0.633721
0.633721
0.633721
0.633721
0.633721
0.633721
0.633721
0.633721
0.633722
0.633722
0.633722
0.633722
0.633722
0.633722
0.633722
0.633722
0.633722
0.633722
0.633722
0.633722
0.633722
0.633722
0.633723
0.633723
0.633723
0.633723
0.633723
0.633723
0.633723
0.633723
0.633723
0.633723
0.633724
0.633724
0.633724
0.633724
0.633724
0.633724
0.633724
0.633724
0.633725
0.633725
0.633725
0.633725
0.633725
0.633725
0.633725
0.633725
0.633726
0.633726
0.633726
0.633726
0.633726
0.633726
0.633727
0.633727
0.633727
0.633727
0.633727
0.633727
0.633728
0.633728
0.633728
0.633728
0.633728
0.633728
0.633728
0.633729
0.633729
0.633729
0.633729
0.633729
0.633729
0.63373
0.63373
0.63373
0.63373
0.63373
0.633731
0.633731
0.633731
0.633731
0.633731
0.633732
0.633732
0.633732
0.633732
0.633733
0.633733
0.633733
0.633733
0.633733
0.633734
0.633734
0.633734
0.633734
0.633734
0.633735
0.633735
0.633735
0.633736
0.633736
0.633736
0.633736
0.633737
0.633737
0.633737
0.633737
0.633738
0.633738
0.633738
0.633738
0.633738
0.633739
0.633739
0.633739
0.633739
0.63374
0.63374
0.633741
0.633741
0.633741
0.633741
0.633742
0.633742
0.633742
0.633742
0.633743
0.633743
0.633743
0.633744
0.633744
0.633744
0.633745
0.633745
0.633745
0.633745
0.633746
0.633746
0.633746
0.633747
0.633747
0.633747
0.633748
0.633748
0.633748
0.633748
0.633749
0.633749
0.63375
0.63375
0.63375
0.633751
0.633751
0.633751
0.633752
0.633752
0.633752
0.633753
0.633753
0.633754
0.633754
0.633754
0.633755
0.633755
0.633755
0.633755
0.633756
0.633756
0.633757
0.633757
0.633757
0.633758
0.633758
0.633759
0.633759
0.633759
0.63376
0.63376
0.633761
0.633761
0.633761
0.633762
0.633762
0.633763
0.633763
0.633763
0.633764
0.633764
0.633765
0.633765
0.633765
0.633766
0.633766
0.633767
0.633767
0.633767
0.633768
0.633768
0.633769
0.633769
0.633769
0.63377
0.633771
0.633771
0.633772
0.633772
0.633772
0.633773
0.633773
0.633774
0.633774
0.633774
0.633775
0.633776
0.633776
0.633776
0.633777
0.633777
0.633778
0.633779
0.633779
0.633779
0.63378
0.63378
0.633781
0.633781
0.633782
0.633782
0.633783
0.633783
0.633783
0.633784
0.633785
0.633785
0.633786
0.633786
0.633787
0.633787
0.633788
0.633788
0.633788
0.633789
0.63379
0.63379
0.633791
0.633791
0.633792
0.633792
0.633793
0.633794
0.633794
0.633794
0.633795
0.633796
0.633796
0.633796
0.633797
0.633798
0.633798
0.633799
0.633799
0.6338
0.6338
0.633801
0.633802
0.633802
0.633803
0.633803
0.633804
0.633805
0.633805
0.633805
0.633806
0.633807
0.633808
0.633808
0.633808
0.633809
0.63381
0.63381
0.63381
0.633811
0.633812
0.633813
0.633813
0.633813
0.633814
0.633815
0.633816
0.633816
0.633816
0.633817
0.633818
0.633819
0.63382
0.63382
0.63382
0.633821
0.633822
0.633823
0.633823
0.633823
0.633824
0.633825
0.633826
0.633826
0.633827
0.633827
0.633828
0.633829
0.633829
0.63383
0.633831
0.633831
0.633832
0.633832
0.633833
0.633834
0.633835
0.633836
0.633836
0.633836
0.633837
0.633838
0.633839
0.633839
0.63384
0.633841
0.633841
0.633842
0.633842
0.633843
0.633844
0.633845
0.633846
0.633846
0.633847
0.633848
0.633848
0.633849
0.633849
0.63385
0.633851
0.633852
0.633853
0.633853
0.633854
0.633855
0.633856
0.633856
0.633856
0.633857
0.633858
0.633859
0.63386
0.63386
0.633861
0.633862
0.633863
0.633864
0.633864
0.633865
0.633866
0.633867
0.633868
0.633868
0.633868
0.633869
0.63387
0.633871
0.633871
0.633872
0.633873
0.633874
0.633875
0.633875
0.633876
0.633877
0.633878
0.633879
0.633879
0.63388
0.633881
0.633882
0.633883
0.633883
0.633884
0.633885
0.633886
0.633887
0.633887
0.633888
0.633889
0.63389
0.633891
0.633891
0.633892
0.633893
0.633894
0.633895
0.633895
0.633896
0.633897
0.633898
0.633899
0.633899
0.6339
0.633901
0.633902
0.633903
0.633903
0.633904
0.633906
0.633907
0.633908
0.633908
0.633909
0.63391
0.633911
0.633912
0.633912
0.633913
0.633914
0.633915
0.633916
0.633916
0.633917
0.633918
0.633919
0.633921
0.633921
0.633922
0.633923
0.633924
0.633925
0.633925
0.633926
0.633927
0.633928
0.633929
0.633929
0.633931
0.633932
0.633933
0.633934
0.633934
0.633935
0.633936
0.633937
0.633939
0.633939
0.63394
0.633941
0.633942
0.633943
0.633943
0.633944
0.633945
0.633947
0.633948
0.633948
0.633949
0.63395
0.633951
0.633953
0.633953
0.633954
0.633955
0.633956
0.633957
0.633957
0.633958
0.63396
0.633961
0.633962
0.633962
0.633963
0.633965
0.633966
0.633967
0.633967
0.633968
0.633969
0.633971
0.633972
0.633972
0.633973
0.633974
0.633976
0.633977
0.633977
0.633978
0.633979
0.633981
0.633982
0.633982
0.633983
0.633984
0.633986
0.633987
0.633987
0.633988
0.633989
0.633991
0.633992
0.633992
0.633993
0.633994
0.633996
0.633997
0.633997
0.633998
0.634
0.634001
0.634002
0.634002
0.634004
0.634005
0.634006
0.634007
0.634007
0.634009
0.63401
0.634011
0.634013
0.634013
0.634014
0.634015
0.634017
0.634018
0.634018
0.634019
0.634021
0.634022
0.634023
0.634023
0.634025
0.634026
0.634028
0.634029
0.634029
0.63403
0.634032
0.634033
0.634034
0.634034
0.634036
0.634037
0.634039
0.63404
0.63404
0.634041
0.634043
0.634044
0.634045
0.634045
0.634047
0.634048
0.63405
0.634051
0.634051
0.634053
0.634054
0.634055
0.634057
0.634057
0.634058
0.63406
0.634061
0.634062
0.634062
0.634064
0.634065
0.634067
0.634068
0.634068
0.63407
0.634071
0.634073
0.634074
0.634074
0.634076
0.634077
0.634078
0.63408
0.63408
0.634081
0.634083
0.634084
0.634086
0.634086
0.634087
0.634089
0.63409
0.634092
0.634092
0.634093
0.634095
0.634096
0.634098
0.634098
0.634099
0.634101
0.634102
0.634104
0.634104
0.634105
0.634107
0.634108
0.63411
0.63411
0.634112
0.634113
0.634115
0.634116
0.634116
0.634118
0.634119
0.634121
0.634122
0.634122
0.634124
0.634125
0.634127
0.634129
0.634129
0.63413
0.634132
0.634133
0.634135
0.634135
0.634136
0.634138
0.63414
0.634141
0.634141
0.634143
0.634144
0.634146
0.634148
0.634148
0.634149
0.634151
0.634152
0.634154
0.634154
0.634156
0.634157
0.634159
0.634161
0.634161
0.634162
0.634164
0.634165
0.634167
0.634167
0.634169
0.63417
0.634172
0.634174
0.634174
0.634175
0.634177
0.634179
0.63418
0.63418
0.634182
0.634184
0.634185
0.634187
0.634187
0.634189
0.63419
0.634192
0.634194
0.634194
0.634195
0.634197
0.634199
0.6342
0.6342
0.634202
0.634204
0.634206
0.634207
0.634207
0.634209
0.634211
0.634212
0.634214
0.634214
0.634216
0.634218
0.634219
0.634221
0.634221
0.634223
0.634225
0.634226
0.634228
0.634228
0.63423
0.634232
0.634233
0.634235
0.634235
0.634237
0.634239
0.63424
0.634242
0.634242
0.634244
0.634246
0.634247
0.634249
0.634249
0.634251
0.634253
0.634255
0.634256
0.634256
0.634258
0.63426
0.634262
0.634264
0.634264
0.634265
0.634267
0.634269
0.634271
0.634271
0.634273
0.634274
0.634276
0.634278
0.634278
0.63428
0.634282
0.634284
0.634286
0.634286
0.634287
0.634289
0.634291
0.634293
0.634293
0.634295
0.634297
0.634298
0.6343
0.6343
0.634302
0.634304
0.634306
0.634308
0.634308
0.63431
0.634312
0.634314
0.634315
0.634315
0.634317
0.634319
0.634321
0.634323
0.634323
0.634325
0.634327
0.634329
0.634331
0.634331
0.634333
0.634334
0.634336
0.634338
0.634338
0.63434
0.634342
0.634344
0.634346
0.634346
0.634348
0.63435
0.634352
0.634354
0.634354
0.634356
0.634358
0.63436
0.634362
0.634362
0.634364
0.634366
0.634368
0.63437
0.63437
0.634371
0.634373
0.634375
0.634377
0.634377
0.634379
0.634381
0.634383
0.634385
0.634385
0.634387
0.634389
0.634391
0.634393
0.634393
0.634395
0.634397
0.634399
0.634402
0.634402
0.634404
0.634406
0.634408
0.63441
0.63441
0.634412
0.634414
0.634416
0.634418
0.634418
0.63442
0.634422
0.634424
0.634426
0.634426
0.634428
0.63443
0.634432
0.634434
0.634434
0.634436
0.634438
0.63444
0.634443
0.634443
0.634445
0.634447
0.634449
0.634451
0.634451
0.634453
0.634455
0.634457
0.634459
0.634459
0.634461
0.634464
0.634466
0.634468
0.634468
0.63447
0.634472
0.634474
0.634476
0.634476
0.634478
0.634481
0.634483
0.634485
0.634485
0.634487
0.634489
0.634491
0.634493
0.634493
0.634496
0.634498
0.6345
0.634502
0.634502
0.634504
0.634506
0.634509
0.634511
0.634511
0.634513
0.634515
0.634517
0.63452
0.63452
0.634522
0.634524
0.634526
0.634528
0.634528
0.63453
0.634533
0.634535
0.634537
0.634537
0.634539
0.634542
0.634544
0.634546
0.634546
0.634548
0.63455
0.634553
0.634555
0.634555
0.634557
0.634559
0.634562
0.634564
0.634564
0.634566
0.634568
0.634571
0.634573
0.634573
0.634575
0.634577
0.63458
0.634582
0.634582
0.634584
0.634587
0.634589
0.634591
0.634591
0.634593
0.634596
0.634598
0.6346
0.6346
0.634603
0.634605
0.634607
0.63461
0.63461
0.634612
0.634614
0.634616
0.634619
0.634619
0.634621
0.634623
0.634626
0.634628
0.634628
0.63463
0.634633
0.634635
0.634637
0.634637
0.63464
0.634642
0.634645
0.634647
0.634647
0.634649
0.634652
0.634654
0.634656
0.634656
0.634659
0.634661
0.634663
0.634666
0.634666
0.634668
0.634671
0.634673
0.634675
0.634675
0.634678
0.63468
0.634683
0.634685
0.634685
0.634687
0.63469
0.634692
0.634695
0.634695
0.634697
0.634699
0.634702
0.634704
0.634704
0.634707
0.634709
0.634712
0.634714
0.634714
0.634716
0.634719
0.634721
0.634724
0.634724
0.634726
0.634729
0.634731
0.634734
0.634734
0.634736
0.634739
0.634741
0.634744
0.634744
0.634746
0.634749
0.634751
0.634753
0.634753
0.634756
0.634758
0.634761
0.634763
0.634763
0.634766
0.634768
0.634771
0.634773
0.634773
0.634776
0.634779
0.634781
0.634784
0.634784
0.634786
0.634789
0.634791
0.634794
0.634794
0.634796
0.634799
0.634801
0.634804
0.634804
0.634806
0.634809
0.634812
0.634814
0.634814
0.634817
0.634819
0.634822
0.634824
0.634824
0.634827
0.634829
0.634832
0.634835
0.634835
0.634837
0.63484
0.634842
0.634845
0.634845
0.634848
0.63485
0.634853
0.634855
0.634855
0.634858
0.634861
0.634863
0.634866
0.634866
0.634868
0.634871
0.634874
0.634876
0.634876
0.634879
0.634882
0.634884
0.634887
0.634887
0.63489
0.634892
0.634895
0.634897
0.634897
0.6349
0.634903
0.634905
0.634908
0.634908
0.634911
0.634914
0.634916
0.634919
0.634919
0.634922
0.634924
0.634927
0.63493
0.63493
0.634932
0.634935
0.634938
0.63494
0.63494
0.634943
0.634946
0.634949
0.634951
0.634951
0.634954
0.634957
0.634959
0.634962
0.634962
0.634965
0.634968
0.63497
0.634973
0.634973
0.634976
0.634979
0.634981
0.634984
0.634984
0.634987
0.63499
0.634992
0.634995
0.634995
0.634998
0.635001
0.635003
0.635006
0.635006
0.635009
0.635012
0.635014
0.635017
0.635017
0.63502
0.635023
0.635026
0.635028
0.635028
0.635031
0.635034
0.635037
0.63504
0.63504
0.635042
0.635045
0.635048
0.635051
0.635051
0.635054
0.635057
0.635059
0.635062
0.635062
0.635065
0.635068
0.635071
0.635074
0.635074
0.635076
0.635079
0.635082
0.635085
0.635085
0.635088
0.635091
0.635094
0.635096
0.635096
0.635099
0.635102
0.635105
0.635108
0.635108
0.635111
0.635114
0.635117
0.635119
0.635119
0.635122
0.635125
0.635128
0.635131
0.635131
0.635134
0.635137
0.63514
0.635143
0.635143
0.635146
0.635149
0.635151
0.635154
0.635154
0.635157
0.63516
0.635163
0.635166
0.635166
0.635169
0.635172
0.635175
0.635178
0.635178
0.635181
0.635184
0.635187
0.63519
0.63519
0.635193
0.635196
0.635199
0.635202
0.635202
0.635205
0.635208
0.635211
0.635214
0.635214
0.635217
0.63522
0.635223
0.635226
0.635226
0.635229
0.635232
0.635235
0.635238
0.635238
0.635241
0.635244
0.635247
0.63525
0.63525
0.635253
0.635256
0.635259
0.635262
0.635262
0.635265
0.635268
0.635271
0.635274
0.635274
0.635277
0.63528
0.635283
0.635286
0.635286
0.635289
0.635292
0.635295
0.635298
0.635298
0.635301
0.635305
0.635308
0.635311
0.635311
0.635314
0.635317
0.63532
0.635323
0.635323
0.635326
0.635329
0.635332
0.635335
0.635335
0.635339
0.635342
0.635345
0.635348
0.635348
0.635351
0.635354
0.635357
0.63536
0.63536
0.635364
0.635367
0.63537
0.635373
0.635373
0.635376
0.635379
0.635382
0.635386
0.635386
0.635389
0.635392
0.635395
0.635398
0.635398
0.635401
0.635404
0.635408
0.635411
0.635411
0.635414
0.635417
0.63542
0.635424
0.635424
0.635427
0.63543
0.635433
0.635436
0.635436
0.63544
0.635443
0.635446
0.635449
0.635449
0.635452
0.635456
0.635459
0.635462
0.635462
0.635465
0.635469
0.635472
0.635475
0.635475
0.635478
0.635481
0.635485
0.635488
0.635488
0.635491
0.635494
0.635498
0.635501
0.635501
0.635504
0.635507
0.635511
0.635514
0.635514
0.635517
0.635521
0.635524
0.635527
0.635527
0.63553
0.635534
0.635537
0.63554
0.63554
0.635544
0.635547
0.63555
0.635553
0.635553
0.635557
0.63556
0.635563
0.635567
0.635567
0.63557
0.635573
0.635577
0.63558
0.63558
0.635583
0.635587
0.63559
0.635593
0.635593
0.635597
0.6356
0.635603
0.635607
0.635607
0.63561
0.635614
0.635617
0.63562
0.63562
0.635624
0.635627
0.63563
0.635634
0.635634
0.635637
0.63564
0.635644
0.635647
0.635647
0.635651
0.635654
0.635657
0.635661
0.635661
0.635664
0.635668
0.635671
0.635674
0.635674
0.635678
0.635681
0.635685
0.635688
0.635688
0.635692
0.635695
0.635698
0.635702
0.635702
0.635705
0.635709
0.635712
0.635716
0.635716
0.635719
0.635723
0.635726
0.635729
0.635729
0.635733
0.635736
0.63574
0.635743
0.635743
0.635747
0.63575
0.635754
0.635757
0.635757
0.635761
0.635764
0.635768
0.635771
0.635771
0.635775
0.635778
0.635782
0.635785
0.635785
0.635789
0.635792
0.635796
0.635799
0.635799
0.635803
0.635806
0.63581
0.635813
0.635813
0.635817
0.63582
0.635824
0.635828
0.635828
0.635831
0.635835
0.635838
0.635842
0.635842
0.635845
0.635849
0.635852
0.635856
0.635856
0.635859
0.635863
0.635867
0.63587
0.63587
0.635874
0.635877
0.635881
0.635885
0.635885
0.635888
0.635892
0.635895
0.635899
0.635899
0.635903
0.635906
0.63591
0.635913
0.635913
0.635917
0.635921
0.635924
0.635928
0.635928
0.635931
0.635935
0.635939
0.635942
0.635942
0.635946
0.63595
0.635953
0.635957
0.635957
0.635961
0.635964
0.635968
0.635972
0.635972
0.635975
0.635979
0.635983
0.635986
0.635986
0.63599
0.635994
0.635997
0.636001
0.636001
0.636005
0.636008
0.636012
0.636016
0.636016
0.636019
0.636023
0.636027
0.636031
0.636031
0.636034
0.636038
0.636042
0.636045
0.636045
0.636049
0.636053
0.636057
0.63606
0.63606
0.636064
0.636068
0.636071
0.636075
0.636075
0.636079
0.636083
0.636086
0.63609
0.63609
0.636094
0.636098
0.636101
0.636105
0.636105
0.636109
0.636113
0.636117
0.63612
0.63612
0.636124
0.636128
0.636132
0.636136
0.636136
0.636139
0.636143
0.636147
0.636151
0.636151
0.636154
0.636158
0.636162
0.636166
0.636166
0.63617
0.636174
0.636177
0.636181
0.636181
0.636185
0.636189
0.636193
0.636196
0.636196
0.6362
0.636204
0.636208
0.636212
0.636212
0.636216
0.63622
0.636223
0.636227
0.636227
0.636231
0.636235
0.636239
0.636243
0.636243
0.636247
0.636251
0.636254
0.636258
0.636258
0.636262
0.636266
0.63627
0.636274
0.636274
0.636278
0.636282
0.636286
0.636289
0.636289
0.636293
0.636297
0.636301
0.636305
0.636305
0.636309
0.636313
0.636317
0.636321
0.636321
0.636325
0.636329
0.636333
0.636337
0.636337
0.63634
0.636344
0.636348
0.636352
0.636352
0.636356
0.63636
0.636364
0.636368
0.636368
0.636372
0.636376
0.63638
0.636384
0.636384
0.636388
0.636392
0.636396
0.6364
0.6364
0.636404
0.636408
0.636412
0.636416
0.636416
0.63642
0.636424
0.636428
0.636432
0.636432
0.636436
0.63644
0.636444
0.636448
0.636448
0.636452
0.636456
0.63646
0.636464
0.636464
0.636468
0.636472
0.636476
0.63648
0.63648
0.636484
0.636488
0.636493
0.636497
0.636497
0.636501
0.636505
0.636509
0.636513
0.636513
0.636517
0.636521
0.636525
0.636529
0.636529
0.636533
0.636537
0.636541
0.636546
0.636546
0.63655
0.636554
0.636558
0.636562
0.636562
0.636566
0.63657
0.636574
0.636578
0.636578
0.636583
0.636587
0.636591
0.636595
0.636595
0.636599
0.636603
0.636607
0.636611
0.636611
0.636616
0.63662
0.636624
0.636628
0.636628
0.636632
0.636636
0.63664
0.636645
0.636645
0.636649
0.636653
0.636657
0.636661
0.636661
0.636666
0.63667
0.636674
0.636678
0.636678
0.636682
0.636686
0.636691
0.636695
0.636695
0.636699
0.636703
0.636707
0.636712
0.636712
0.636716
0.63672
0.636724
0.636729
0.636729
0.636733
0.636737
0.636741
0.636745
0.636745
0.63675
0.636754
0.636758
0.636762
0.636762
0.636767
0.636771
0.636775
0.636779
0.636779
0.636784
0.636788
0.636792
0.636797
0.636797
0.636801
0.636805
0.636809
0.636814
0.636814
0.636818
0.636822
0.636826
0.636831
0.636831
0.636835
0.636839
0.636844
0.636848
0.636848
0.636852
0.636857
0.636861
0.636865
0.636865
0.636869
0.636874
0.636878
0.636882
0.636882
0.636887
0.636891
0.636895
0.6369
0.6369
0.636904
0.636909
0.636913
0.636917
0.636917
0.636922
0.636926
0.63693
0.636935
0.636935
0.636939
0.636943
0.636948
0.636952
0.636952
0.636956
0.636961
0.636965
0.63697
0.63697
0.636974
0.636978
0.636983
0.636987
0.636987
0.636992
0.636996
0.637
0.637005
0.637005
0.637009
0.637014
0.637018
0.637023
0.637023
0.637027
0.637031
0.637036
0.63704
0.63704
0.637045
0.637049
0.637054
0.637058
0.637058
0.637062
0.637067
0.637071
0.637076
0.637076
0.63708
0.637085
0.637089
0.637094
0.637094
0.637098
0.637103
0.637107
0.637112
0.637112
0.637116
0.637121
0.637125
0.63713
0.63713
0.637134
0.637139
0.637143
0.637148
0.637148
0.637152
0.637157
0.637161
0.637166
0.637166
0.63717
0.637175
0.637179
0.637184
0.637184
0.637188
0.637193
0.637197
0.637202
0.637202
0.637206
0.637211
0.637215
0.63722
0.63722
0.637224
0.637229
0.637234
0.637238
0.637238
0.637243
0.637247
0.637252
0.637256
0.637256
0.637261
0.637266
0.63727
0.637275
0.637275
0.637279
0.637284
0.637289
0.637293
0.637293
0.637298
0.637302
0.637307
0.637312
0.637312
0.637316
0.637321
0.637325
0.63733
0.63733
0.637335
0.637339
0.637344
0.637349
0.637349
0.637353
0.637358
0.637362
0.637367
0.637367
0.637372
0.637376
0.637381
0.637386
0.637386
0.63739
0.637395
0.6374
0.637404
0.637404
0.637409
0.637414
0.637418
0.637423
0.637423
0.637428
0.637432
0.637437
0.637442
0.637442
0.637446
0.637451
0.637456
0.637461
0.637461
0.637465
0.63747
0.637475
0.637479
0.637479
0.637484
0.637489
0.637494
0.637498
0.637498
0.637503
0.637508
0.637512
0.637517
0.637517
0.637522
0.637527
0.637531
0.637536
0.637536
0.637541
0.637546
0.63755
0.637555
0.637555
0.63756
0.637565
0.637569
0.637574
0.637574
0.637579
0.637584
0.637589
0.637593
0.637593
0.637598
0.637603
0.637608
0.637613
0.637613
0.637617
0.637622
0.637627
0.637632
0.637632
0.637637
0.637641
0.637646
0.637651
0.637651
0.637656
0.637661
0.637665
0.63767
0.63767
0.637675
0.63768
0.637685
0.63769
0.63769
0.637694
0.637699
0.637704
0.637709
0.637709
0.637714
0.637719
0.637724
0.637728
0.637728
0.637733
0.637738
0.637743
0.637748
0.637748
0.637753
0.637758
0.637763
0.637767
0.637767
0.637772
0.637777
0.637782
0.637787
0.637787
0.637792
0.637797
0.637802
0.637807
0.637807
0.637812
0.637817
0.637821
0.637826
0.637826
0.637831
0.637836
0.637841
0.637846
0.637846
0.637851
0.637856
0.637861
0.637866
0.637866
0.637871
0.637876
0.637881
0.637886
0.637886
0.637891
0.637896
0.637901
0.637906
0.637906
0.637911
0.637915
0.63792
0.637925
0.637925
0.63793
0.637935
0.63794
0.637945
0.637945
0.63795
0.637955
0.63796
0.637965
0.637965
0.63797
0.637975
0.63798
0.637985
0.637985
0.63799
0.637995
0.638
0.638006
0.638006
0.638011
0.638016
0.638021
0.638026
0.638026
0.638031
0.638036
0.638041
0.638046
0.638046
0.638051
0.638056
0.638061
0.638066
0.638066
0.638071
0.638076
0.638081
0.638086
0.638086
0.638091
0.638096
0.638102
0.638107
0.638107
0.638112
0.638117
0.638122
0.638127
0.638127
0.638132
0.638137
0.638142
0.638147
0.638147
0.638153
0.638158
0.638163
0.638168
0.638168
0.638173
0.638178
0.638183
0.638188
0.638188
0.638194
0.638199
0.638204
0.638209
0.638209
0.638214
0.638219
0.638224
0.63823
0.63823
0.638235
0.63824
0.638245
0.63825
0.63825
0.638255
0.638261
0.638266
0.638271
0.638271
0.638276
0.638281
0.638287
0.638292
0.638292
0.638297
0.638302
0.638307
0.638312
0.638312
0.638318
0.638323
0.638328
0.638333
0.638333
0.638339
0.638344
0.638349
0.638354
0.638354
0.638359
0.638365
0.63837
0.638375
0.638375
0.63838
0.638386
0.638391
0.638396
0.638396
0.638401
0.638407
0.638412
0.638417
0.638417
0.638422
0.638428
0.638433
0.638438
0.638438
0.638443
0.638449
0.638454
0.638459
0.638459
0.638465
0.63847
0.638475
0.638481
0.638481
0.638486
0.638491
0.638496
0.638502
0.638502
0.638507
0.638512
0.638518
0.638523
0.638523
0.638528
0.638534
0.638539
0.638544
0.638544
0.63855
0.638555
0.63856
0.638566
0.638566
0.638571
0.638576
0.638582
0.638587
0.638587
0.638592
0.638598
0.638603
0.638608
0.638608
0.638614
0.638619
0.638625
0.63863
0.63863
0.638635
0.638641
0.638646
0.638651
0.638651
0.638657
0.638662
0.638668
0.638673
0.638673
0.638678
0.638684
0.638689
0.638695
0.638695
0.6387
0.638706
0.638711
0.638716
0.638716
0.638722
0.638727
0.638733
0.638738
0.638738
0.638744
0.638749
0.638754
0.63876
0.63876
0.638765
0.638771
0.638776
0.638782
0.638782
0.638787
0.638793
0.638798
0.638804
0.638804
0.638809
0.638815
0.63882
0.638825
0.638825
0.638831
0.638836
0.638842
0.638847
0.638847
0.638853
0.638858
0.638864
0.638869
0.638869
0.638875
0.63888
0.638886
0.638891
0.638891
0.638897
0.638903
0.638908
0.638914
0.638914
0.638919
0.638925
0.63893
0.638936
0.638936
0.638941
0.638947
0.638952
0.638958
0.638958
0.638963
0.638969
0.638975
0.63898
0.63898
0.638986
0.638991
0.638997
0.639002
0.639002
0.639008
0.639014
0.639019
0.639025
0.639025
0.63903
0.639036
0.639042
0.639047
0.639047
0.639053
0.639058
0.639064
0.63907
0.63907
0.639075
0.639081
0.639086
0.639092
0.639092
0.639098
0.639103
0.639109
0.639115
0.639115
0.63912
0.639126
0.639131
0.639137
0.639137
0.639143
0.639148
0.639154
0.63916
0.63916
0.639165
0.639171
0.639177
0.639182
0.639182
0.639188
0.639194
0.639199
0.639205
0.639205
0.639211
0.639216
0.639222
0.639228
0.639228
0.639233
0.639239
0.639245
0.639251
0.639251
0.639256
0.639262
0.639268
0.639273
0.639273
0.639279
0.639285
0.639291
0.639296
0.639296
0.639302
0.639308
0.639314
0.639319
0.639319
0.639325
0.639331
0.639336
0.639342
0.639342
0.639348
0.639354
0.63936
0.639365
0.639365
0.639371
0.639377
0.639383
0.639388
0.639388
0.639394
0.6394
0.639406
0.639411
0.639411
0.639417
0.639423
0.639429
0.639435
0.639435
0.63944
0.639446
0.639452
0.639458
0.639458
0.639464
0.639469
0.639475
0.639481
0.639481
0.639487
0.639493
0.639499
0.639504
0.639504
0.63951
0.639516
0.639522
0.639528
0.639528
0.639534
0.639539
0.639545
0.639551
0.639551
0.639557
0.639563
0.639569
0.639575
0.639575
0.639581
0.639586
0.639592
0.639598
0.639598
0.639604
0.63961
0.639616
0.639622
0.639622
0.639628
0.639633
0.639639
0.639645
0.639645
0.639651
0.639657
0.639663
0.639669
0.639669
0.639675
0.639681
0.639687
0.639693
0.639693
0.639699
0.639704
0.63971
0.639716
0.639716
0.639722
0.639728
0.639734
0.63974
0.63974
0.639746
0.639752
0.639758
0.639764
0.639764
0.63977
0.639776
0.639782
0.639788
0.639788
0.639794
0.6398
0.639806
0.639812
0.639812
0.639818
0.639824
0.63983
0.639836
0.639836
0.639842
0.639848
0.639854
0.63986
0.63986
0.639866
0.639872
0.639878
0.639884
0.639884
0.63989
0.639896
0.639902
0.639908
0.639908
0.639914
0.63992
0.639926
0.639932
0.639932
0.639938
0.639944
0.63995
0.639956
0.639956
0.639962
0.639968
0.639974
0.63998
0.63998
0.639987
0.639993
0.639999
0.640005
0.640005
0.640011
0.640017
0.640023
0.640029
0.640029
0.640035
0.640041
0.640047
0.640053
0.640053
0.64006
0.640066
0.640072
0.640078
0.640078
0.640084
0.64009
0.640096
0.640102
0.640102
0.640108
0.640115
0.640121
0.640127
0.640127
0.640133
0.640139
0.640145
0.640151
0.640151
0.640158
0.640164
0.64017
0.640176
0.640176
0.640182
0.640188
0.640195
0.640201
0.640201
0.640207
0.640213
0.640219
0.640225
0.640225
0.640232
0.640238
0.640244
0.64025
0.64025
0.640256
0.640263
0.640269
0.640275
0.640275
0.640281
0.640287
0.640294
0.6403
0.6403
0.640306
0.640312
0.640319
0.640325
0.640325
0.640331
0.640337
0.640343
0.64035
0.64035
0.640356
0.640362
0.640368
0.640375
0.640375
0.640381
0.640387
0.640394
0.6404
0.6404
0.640406
0.640412
0.640419
0.640425
0.640425
0.640431
0.640437
0.640444
0.64045
0.64045
0.640456
0.640463
0.640469
0.640475
0.640475
0.640481
0.640488
0.640494
0.6405
0.6405
0.640507
0.640513
0.640519
0.640526
0.640526
0.640532
0.640538
0.640545
0.640551
0.640551
0.640557
0.640564
0.64057
0.640576
0.640576
0.640583
0.640589
0.640595
0.640602
0.640602
0.640608
0.640615
0.640621
0.640627
0.640627
0.640634
0.64064
0.640646
0.640653
0.640653
0.640659
0.640666
0.640672
0.640678
0.640678
0.640685
0.640691
0.640698
0.640704
0.640704
0.64071
0.640717
0.640723
0.64073
0.64073
0.640736
0.640742
0.640749
0.640755
0.640755
0.640762
0.640768
0.640775
0.640781
0.640781
0.640788
0.640794
0.6408
0.640807
0.640807
0.640813
0.64082
0.640826
0.640833
0.640833
0.640839
0.640846
0.640852
0.640859
0.640859
0.640865
0.640872
0.640878
0.640885
0.640885
0.640891
0.640898
0.640904
0.640911
0.640911
0.640917
0.640924
0.64093
0.640937
0.640937
0.640943
0.64095
0.640956
0.640963
0.640963
0.640969
0.640976
0.640982
0.640989
0.640989
0.640995
0.641002
0.641008
0.641015
0.641015
0.641021
0.641028
0.641035
0.641041
0.641041
0.641048
0.641054
0.641061
0.641067
0.641067
0.641074
0.641081
0.641087
0.641094
0.641094
0.6411
0.641107
0.641114
0.64112
0.64112
0.641127
0.641133
0.64114
0.641146
0.641146
0.641153
0.64116
0.641166
0.641173
0.641173
0.64118
0.641186
0.641193
0.641199
0.641199
0.641206
0.641213
0.641219
0.641226
0.641226
0.641233
0.641239
0.641246
0.641253
0.641253
0.641259
0.641266
0.641273
0.641279
0.641279
0.641286
0.641293
0.641299
0.641306
0.641306
0.641313
0.641319
0.641326
0.641333
0.641333
0.641339
0.641346
0.641353
0.64136
0.64136
0.641366
0.641373
0.64138
0.641386
0.641386
0.641393
0.6414
0.641406
0.641413
0.641413
0.64142
0.641427
0.641433
0.64144
0.64144
0.641447
0.641454
0.64146
0.641467
0.641467
0.641474
0.641481
0.641487
0.641494
0.641494
0.641501
0.641508
0.641514
0.641521
0.641521
0.641528
0.641535
0.641542
0.641548
0.641548
0.641555
0.641562
0.641569
0.641576
0.641576
0.641582
0.641589
0.641596
0.641603
0.641603
0.64161
0.641616
0.641623
0.64163
0.64163
0.641637
0.641644
0.641651
0.641657
0.641657
0.641664
0.641671
0.641678
0.641685
0.641685
0.641692
0.641698
0.641705
0.641712
0.641712
0.641719
0.641726
0.641733
0.64174
0.64174
0.641746
0.641753
0.64176
0.641767
0.641767
0.641774
0.641781
0.641788
0.641795
0.641795
0.641802
0.641808
0.641815
0.641822
0.641822
0.641829
0.641836
0.641843
0.64185
0.64185
0.641857
0.641864
0.641871
0.641878
0.641878
0.641884
0.641891
0.641898
0.641905
0.641905
0.641912
0.641919
0.641926
0.641933
0.641933
0.64194
0.641947
0.641954
0.641961
0.641961
0.641968
0.641975
0.641982
0.641989
0.641989
0.641996
0.642003
0.64201
0.642017
0.642017
0.642024
0.642031
0.642038
0.642045
0.642045
0.642052
0.642059
0.642066
0.642073
0.642073
0.64208
0.642087
0.642094
0.642101
0.642101
0.642108
0.642115
0.642122
0.642129
0.642129
0.642136
0.642143
0.64215
0.642157
0.642157
0.642164
0.642171
0.642178
0.642185
0.642185
0.642192
0.642199
0.642207
0.642214
0.642214
0.642221
0.642228
0.642235
0.642242
0.642242
0.642249
0.642256
0.642263
0.64227
0.64227
0.642277
0.642285
0.642292
0.642299
0.642299
0.642306
0.642313
0.64232
0.642327
0.642327
0.642334
0.642341
0.642349
0.642356
0.642356
0.642363
0.64237
0.642377
0.642384
0.642384
0.642391
0.642399
0.642406
0.642413
0.642413
0.64242
0.642427
0.642434
0.642442
0.642442
0.642449
0.642456
0.642463
0.64247
0.64247
0.642477
0.642485
0.642492
0.642499
0.642499
0.642506
0.642513
0.642521
0.642528
0.642528
0.642535
0.642542
0.642549
0.642557
0.642557
0.642564
0.642571
0.642578
0.642586
0.642586
0.642593
0.6426
0.642607
0.642615
0.642615
0.642622
0.642629
0.642636
0.642643
0.642643
0.642651
0.642658
0.642665
0.642673
0.642673
0.64268
0.642687
0.642694
0.642702
0.642702
0.642709
0.642716
0.642724
0.642731
0.642731
0.642738
0.642745
0.642753
0.64276
0.64276
0.642767
0.642775
0.642782
0.642789
0.642789
0.642797
0.642804
0.642811
0.642819
0.642819
0.642826
0.642833
0.642841
0.642848
0.642848
0.642855
0.642863
0.64287
0.642877
0.642877
0.642885
0.642892
0.642899
0.642907
0.642907
0.642914
0.642921
0.642929
0.642936
0.642936
0.642944
0.642951
0.642958
0.642966
0.642966
0.642973
0.64298
0.642988
0.642995
0.642995
0.643003
0.64301
0.643017
0.643025
0.643025
0.643032
0.64304
0.643047
0.643055
0.643055
0.643062
0.643069
0.643077
0.643084
0.643084
0.643092
0.643099
0.643107
0.643114
0.643114
0.643122
0.643129
0.643136
0.643144
0.643144
0.643151
0.643159
0.643166
0.643174
0.643174
0.643181
0.643189
0.643196
0.643204
0.643204
0.643211
0.643219
0.643226
0.643234
0.643234
0.643241
0.643249
0.643256
0.643264
0.643264
0.643271
0.643279
0.643286
0.643294
0.643294
0.643301
0.643309
0.643316
0.643324
0.643324
0.643331
0.643339
0.643346
0.643354
0.643354
0.643362
0.643369
0.643377
0.643384
0.643384
0.643392
0.643399
0.643407
0.643415
0.643415
0.643422
0.64343
0.643437
0.643445
0.643445
0.643452
0.64346
0.643468
0.643475
0.643475
0.643483
0.64349
0.643498
0.643506
0.643506
0.643513
0.643521
0.643528
0.643536
0.643536
0.643544
0.643551
0.643559
0.643567
0.643567
0.643574
0.643582
0.64359
0.643597
0.643597
0.643605
0.643612
0.64362
0.643628
0.643628
0.643635
0.643643
0.643651
0.643658
0.643658
0.643666
0.643674
0.643681
0.643689
0.643689
0.643697
0.643705
0.643712
0.64372
0.64372
0.643728
0.643735
0.643743
0.643751
0.643751
0.643758
0.643766
0.643774
0.643782
0.643782
0.643789
0.643797
0.643805
0.643812
0.643812
0.64382
0.643828
0.643836
0.643843
0.643843
0.643851
0.643859
0.643867
0.643874
0.643874
0.643882
0.64389
0.643898
0.643905
0.643905
0.643913
0.643921
0.643929
0.643937
0.643937
0.643944
0.643952
0.64396
0.643968
0.643968
0.643976
0.643983
0.643991
0.643999
0.643999
0.644007
0.644015
0.644022
0.64403
0.64403
0.644038
0.644046
0.644054
0.644062
0.644062
0.644069
0.644077
0.644085
0.644093
0.644093
0.644101
0.644109
0.644116
0.644124
0.644124
0.644132
0.64414
0.644148
0.644156
0.644156
0.644164
0.644172
0.644179
0.644187
0.644187
0.644195
0.644203
0.644211
0.644219
0.644219
0.644227
0.644235
0.644243
0.64425
0.64425
0.644258
0.644266
0.644274
0.644282
0.644282
0.64429
0.644298
0.644306
0.644314
0.644314
0.644322
0.64433
0.644338
0.644346
0.644346
0.644354
0.644361
0.644369
0.644377