<?xml version="1.0"?>
<VTKFile type="UnstructuredGrid" version="0.1" byte_order="LittleEndian">
<UnstructuredGrid>
<Piece NumberOfPoints="5000" NumberOfCells="4000">
<PointData Scalars="Reaction 0">
<DataArray type="Float32" Name="Reaction 0" format="ascii">
0.241859
0.241859
0.241859
0.241859
0.241859
0.241859
0.241859
0.24186
0.24186
0.24186
0.24186
0.24186
0.241861
0.241861
0.241861
0.241861
0.241862
0.241862
0.241863
0.241863
0.241863
0.241864
0.241864
0.241865
0.241866
0.241866
0.241866
0.241867
0.241868
0.241869
0.241869
0.24187
0.24187
0.241871
0.241872
0.241872
0.241873
0.241874
0.241875
0.241876
0.241876
0.241877
0.241879
0.24188
0.241881
0.241881
0.241882
0.241883
0.241885
0.241886
0.241886
0.241888
0.241889
0.24189
0.241892
0.241892
0.241893
0.241895
0.241896
0.241898
0.241898
0.2419
0.241901
0.241903
0.241905
0.241905
0.241907
0.241909
0.24191
0.241912
0.241912
0.241914
0.241916
0.241918
0.24192
0.24192
0.241922
0.241924
0.241926
0.241929
0.241929
0.241931
0.241933
0.241935
0.241938
0.241938
0.24194
0.241942
0.241945
0.241947
0.241947
0.24195
0.241952
0.241955
0.241957
0.241957
0.24196
0.241962
0.241965
0.241968
0.241968
0.24197
0.241973
0.241976
0.241979
0.241979
0.241982
0.241985
0.241988
0.241991
0.241991
0.241994
0.241997
0.242
0.242003
0.242003
0.242006
0.242009
0.242012
0.242016
0.242016
0.242019
0.242022
0.242026
0.242029
0.242029
0.242032
0.242036
0.242039
0.242043
0.242043
0.242046
0.24205
0.242054
0.242057
0.242057
0.242061
0.242065
0.242068
0.242072
0.242072
0.242076
0.24208
0.242084
0.242088
0.242088
0.242092
0.242096
0.2421
0.242104
0.242104
0.242108
0.242112
0.242116
0.24212
0.24212
0.242125
0.242129
0.242133
0.242137
0.242137
0.242142
0.242146
0.242151
0.242155
0.242155
0.24216
0.242164
0.242169
0.242173
0.242173
0.242178
0.242183
0.242187
0.242192
0.242192
0.242197
0.242202
0.242207
0.242211
0.242211
0.242216
0.242221
0.242226
0.242231
0.242231
0.242236
0.242241
0.242247
0.242252
0.242252
0.242257
0.242262
0.242267
0.242273
0.242273
0.242278
0.242283
0.242289
0.242294
0.242294
0.2423
0.242305
0.242311
0.242316
0.242316
0.242322
0.242327
0.242333
0.242339
0.242339
0.242344
0.24235
0.242356
0.242362
0.242362
0.242368
0.242374
0.24238
0.242385
0.242385
0.242391
0.242398
0.242404
0.24241
0.24241
0.242416
0.242422
0.242428
0.242434
0.242434
0.242441
0.242447
0.242453
0.24246
0.24246
0.242466
0.242473
0.242479
0.242486
0.242486
0.242492
0.242499
0.242505
0.242512
0.242512
0.242519
0.242525
0.242532
0.242539
0.242539
0.242546
0.242553
0.242559
0.242566
0.242566
0.242573
0.24258
0.242587
0.242594
0.242594
0.242601
0.242609
0.242616
0.242623
0.242623
0.24263
0.242637
0.242645
0.242652
0.242652
0.242659
0.242667
0.242674
0.242682
0.242682
0.242689
0.242697
0.242704
0.242712
0.242712
0.242719
0.242727
0.242735
0.242743
0.242743
0.24275
0.242758
0.242766
0.242774
0.242774
0.242782
0.24279
0.242798
0.242806
0.242806
0.242814
0.242822
0.24283
0.242838
0.242838
0.242846
0.242854
0.242863
0.242871
0.242871
0.242879
0.242888
0.242896
0.242904
0.242904
0.242913
0.242921
0.24293
0.242938
0.242938
0.242947
0.242956
0.242964
0.242973
0.242973
0.242982
0.24299
0.242999
0.243008
0.243008
0.243017
0.243026
0.243035
0.243044
0.243044
0.243053
0.243062
0.243071
0.24308
0.24308
0.243089
0.243098
0.243107
0.243116
0.243116
0.243126
0.243135
0.243144
0.243154
0.243154
0.243163
0.243173
0.243182
0.243192
0.243192
0.243201
0.243211
0.24322
0.24323
0.24323
0.24324
0.243249
0.243259
0.243269
0.243269
0.243279
0.243288
0.243298
0.243308
0.243308
0.243318
0.243328
0.243338
0.243348
0.243348
0.243358
0.243368
0.243378
0.243389
0.243389
0.243399
0.243409
0.243419
0.24343
0.24343
0.24344
0.24345
0.243461
0.243471
0.243471
0.243482
0.243492
0.243503
0.243513
0.243513
0.243524
0.243535
0.243545
0.243556
0.243556
0.243567
0.243578
0.243589
0.243599
0.243599
0.24361
0.243621
0.243632
0.243643
0.243643
0.243654
0.243665
0.243676
0.243687
0.243687
0.243699
0.24371
0.243721
0.243732
0.243732
0.243744
0.243755
0.243766
0.243778
0.243778
0.243789
0.243801
0.243812
0.243824
0.243824
0.243835
0.243847
0.243859
0.24387
0.24387
0.243882
0.243894
0.243905
0.243917
0.243917
0.243929
0.243941
0.243953
0.243965
0.243965
0.243977
0.243989
0.244001
0.244013
0.244013
0.244025
0.244037
0.244049
0.244062
0.244062
0.244074
0.244086
0.244098
0.244111
0.244111
0.244123
0.244136
0.244148
0.244161
0.244161
0.244173
0.244186
0.244198
0.244211
0.244211
0.244224
0.244236
0.244249
0.244262
0.244262
0.244274
0.244287
0.2443
0.244313
0.244313
0.244326
0.244339
0.244352
0.244365
0.244365
0.244378
0.244391
0.244404
0.244417
0.244417
0.244431
0.244444
0.244457
0.24447
0.24447
0.244484
0.244497
0.244511
0.244524
0.244524
0.244537
0.244551
0.244565
0.244578
0.244578
0.244592
0.244605
0.244619
0.244633
0.244633
0.244646
0.24466
0.244674
0.244688
0.244688
0.244702
0.244716
0.24473
0.244744
0.244744
0.244758
0.244772
0.244786
0.2448
0.2448
0.244814
0.244828
0.244842
0.244857
0.244857
0.244871
0.244885
0.2449
0.244914
0.244914
0.244929
0.244943
0.244957
0.244972
0.244972
0.244987
0.245001
0.245016
0.24503
0.24503
0.245045
0.24506
0.245075
0.245089
0.245089
0.245104
0.245119
0.245134
0.245149
0.245149
0.245164
0.245179
0.245194
0.245209
0.245209
0.245224
0.245239
0.245254
0.24527
0.24527
0.245285
0.2453
0.245315
0.245331
0.245331
0.245346
0.245362
0.245377
0.245392
0.245392
0.245408
0.245423
0.245439
0.245455
0.245455
0.24547
0.245486
0.245502
0.245517
0.245517
0.245533
0.245549
0.245565
0.245581
0.245581
0.245597
0.245613
0.245629
0.245645
0.245645
0.245661
0.245677
0.245693
0.245709
0.245709
0.245725
0.245741
0.245758
0.245774
0.245774
0.24579
0.245807
0.245823
0.24584
0.24584
0.245856
0.245872
0.245889
0.245906
0.245906
0.245922
0.245939
0.245955
0.245972
0.245972
0.245989
0.246006
0.246022
0.246039
0.246039
0.246056
0.246073
0.24609
0.246107
0.246107
0.246124
0.246141
0.246158
0.246175
0.246175
0.246192
0.246209
0.246227
0.246244
0.246244
0.246261
0.246278
0.246296
0.246313
0.246313
0.246331
0.246348
0.246365
0.246383
0.246383
0.246401
0.246418
0.246436
0.246453
0.246453
0.246471
0.246489
0.246506
0.246524
0.246524
0.246542
0.24656
0.246578
0.246596
0.246596
0.246614
0.246632
0.24665
0.246668
0.246668
0.246686
0.246704
0.246722
0.24674
0.24674
0.246758
0.246777
0.246795
0.246813
0.246813
0.246832
0.24685
0.246869
0.246887
0.246887
0.246905
0.246924
0.246943
0.246961
0.246961
0.24698
0.246998
0.247017
0.247036
0.247036
0.247055
0.247073
0.247092
0.247111
0.247111
0.24713
0.247149
0.247168
0.247187
0.247187
0.247206
0.247225
0.247244
0.247263
0.247263
0.247282
0.247302
0.247321
0.24734
0.24734
0.247359
0.247379
0.247398
0.247418
0.247418
0.247437
0.247456
0.247476
0.247496
0.247496
0.247515
0.247535
0.247554
0.247574
0.247574
0.247594
0.247613
0.247633
0.247653
0.247653
0.247673
0.247693
0.247713
0.247733
0.247733
0.247753
0.247773
0.247793
0.247813
0.247813
0.247833
0.247853
0.247873
0.247893
0.247893
0.247914
0.247934
0.247954
0.247975
0.247975
0.247995
0.248016
0.248036
0.248056
0.248056
0.248077
0.248098
0.248118
0.248139
0.248139
0.248159
0.24818
0.248201
0.248222
0.248222
0.248242
0.248263
0.248284
0.248305
0.248305
0.248326
0.248347
0.248368
0.248389
0.248389
0.24841
0.248431
0.248452
0.248473
0.248473
0.248495
0.248516
0.248537
0.248558
0.248558
0.24858
0.248601
0.248622
0.248644
0.248644
0.248665
0.248687
0.248708
0.24873
0.24873
0.248752
0.248773
0.248795
0.248817
0.248817
0.248838
0.24886
0.248882
0.248904
0.248904
0.248926
0.248948
0.24897
0.248992
0.248992
0.249014
0.249036
0.249058
0.24908
0.24908
0.249102
0.249124
0.249146
0.249169
0.249169
0.249191
0.249213
0.249236
0.249258
0.249258
0.24928
0.249303
0.249325
0.249348
0.249348
0.24937
0.249393
0.249416
0.249438
0.249438
0.249461
0.249484
0.249506
0.249529
0.249529
0.249552
0.249575
0.249598
0.249621
0.249621
0.249644
0.249667
0.24969
0.249713
0.249713
0.249736
0.249759
0.249782
0.249805
0.249805
0.249829
0.249852
0.249875
0.249898
0.249898
0.249922
0.249945
0.249969
0.249992
0.249992
0.250016
0.250039
0.250063
0.250086
0.250086
0.25011
0.250134
0.250157
0.250181
0.250181
0.250205
0.250229
0.250252
0.250276
0.250276
0.2503
0.250324
0.250348
0.250372
0.250372
0.250396
0.25042
0.250444
0.250469
0.250469
0.250493
0.250517
0.250541
0.250565
0.250565
0.25059
0.250614
0.250638
0.250663
0.250663
0.250687
0.250712
0.250736
0.250761
0.250761
0.250785
0.25081
0.250835
0.250859
0.250859
0.250884
0.250909
0.250934
0.250958
0.250958
0.250983
0.251008
0.251033
0.251058
0.251058
0.251083
0.251108
0.251133
0.251158
0.251158
0.251183
0.251209
0.251234
0.251259
0.251259
0.251284
0.251309
0.251335
0.25136
0.25136
0.251386
0.251411
0.251436
0.251462
0.251462
0.251487
0.251513
0.251539
0.251564
0.251564
0.25159
0.251616
0.251641
0.251667
0.251667
0.251693
0.251719
0.251745
0.251771
0.251771
0.251796
0.251822
0.251848
0.251874
0.251874
0.251901
0.251927
0.251953
0.251979
0.251979
0.252005
0.252031
0.252058
0.252084
0.252084
0.25211
0.252137
0.252163
0.25219
0.25219
0.252216
0.252242
0.252269
0.252296
0.252296
0.252322
0.252349
0.252376
0.252402
0.252402
0.252429
0.252456
0.252483
0.252509
0.252509
0.252536
0.252563
0.25259
0.252617
0.252617
0.252644
0.252671
0.252698
0.252725
0.252725
0.252753
0.25278
0.252807
0.252834
0.252834
0.252861
0.252889
0.252916
0.252944
0.252944
0.252971
0.252998
0.253026
0.253053
0.253053
0.253081
0.253109
0.253136
0.253164
0.253164
0.253191
0.253219
0.253247
0.253275
0.253275
0.253303
0.25333
0.253358
0.253386
0.253386
0.253414
0.253442
0.25347
0.253498
0.253498
0.253526
0.253555
0.253583
0.253611
0.253611
0.253639
0.253667
0.253696
0.253724
0.253724
0.253752
0.253781
0.253809
0.253838
0.253838
0.253866
0.253895
0.253923
0.253952
0.253952
0.25398
0.254009
0.254038
0.254067
0.254067
0.254095
0.254124
0.254153
0.254182
0.254182
0.254211
0.25424
0.254269
0.254298
0.254298
0.254327
0.254356
0.254385
0.254414
0.254414
0.254443
0.254472
0.254502
0.254531
0.254531
0.25456
0.25459
0.254619
0.254648
0.254648
0.254678
0.254707
0.254737
0.254766
0.254766
0.254796
0.254825
0.254855
0.254885
0.254885
0.254914
0.254944
0.254974
0.255004
0.255004
0.255034
0.255064
0.255093
0.255123
0.255123
0.255153
0.255183
0.255213
0.255244
0.255244
0.255274
0.255304
0.255334
0.255364
0.255364
0.255394
0.255425
0.255455
0.255485
0.255485
0.255516
0.255546
0.255577
0.255607
0.255607
0.255638
0.255668
0.255699
0.255729
0.255729
0.25576
0.255791
0.255821
0.255852
0.255852
0.255883
0.255914
0.255945
0.255976
0.255976
0.256006
0.256037
0.256068
0.256099
0.256099
0.256131
0.256162
0.256193
0.256224
0.256224
0.256255
0.256286
0.256318
0.256349
0.256349
0.25638
0.256412
0.256443
0.256474
0.256474
0.256506
0.256537
0.256569
0.2566
0.2566
0.256632
0.256664
0.256695
0.256727
0.256727
0.256759
0.256791
0.256822
0.256854
0.256854
0.256886
0.256918
0.25695
0.256982
0.256982
0.257014
0.257046
0.257078
0.25711
0.25711
0.257142
0.257174
0.257206
0.257239
0.257239
0.257271
0.257303
0.257336
0.257368
0.257368
0.2574
0.257433
0.257465
0.257498
0.257498
0.25753
0.257563
0.257596
0.257628
0.257628
0.257661
0.257694
0.257726
0.257759
0.257759
0.257792
0.257825
0.257858
0.25789
0.25789
0.257923
0.257956
0.257989
0.258022
0.258022
0.258056
0.258089
0.258122
0.258155
0.258155
0.258188
0.258221
0.258255
0.258288
0.258288
0.258321
0.258355
0.258388
0.258422
0.258422
0.258455
0.258489
0.258522
0.258556
0.258556
0.258589
0.258623
0.258657
0.25869
0.25869
0.258724
0.258758
0.258792
0.258826
0.258826
0.258859
0.258893
0.258927
0.258961
0.258961
0.258995
0.259029
0.259063
0.259098
0.259098
0.259132
0.259166
0.2592
0.259234
0.259234
0.259269
0.259303
0.259337
0.259372
0.259372
0.259406
0.259441
0.259475
0.25951
0.25951
0.259544
0.259579
0.259613
0.259648
0.259648
0.259683
0.259717
0.259752
0.259787
0.259787
0.259822
0.259857
0.259891
0.259926
0.259926
0.259961
0.259996
0.260031
0.260066
0.260066
0.260102
0.260137
0.260172
0.260207
0.260207
0.260242
0.260277
0.260313
0.260348
0.260348
0.260383
0.260419
0.260454
0.26049
0.26049
0.260525
0.260561
0.260596
0.260632
0.260632
0.260668
0.260703
0.260739
0.260775
0.260775
0.26081
0.260846
0.260882
0.260918
0.260918
0.260954
0.26099
0.261026
0.261062
0.261062
0.261098
0.261134
0.26117
0.261206
0.261206
0.261242
0.261278
0.261315
0.261351
0.261351
0.261387
0.261423
0.26146
0.261496
0.261496
0.261533
0.261569
0.261606
0.261642
0.261642
0.261679
0.261715
0.261752
0.261789
0.261789
0.261825
0.261862
0.261899
0.261936
0.261936
0.261972
0.262009
0.262046
0.262083
0.262083
0.26212
0.262157
0.262194
0.262231
0.262231
0.262268
0.262305
0.262343
0.26238
0.26238
0.262417
0.262454
0.262492
0.262529
0.262529
0.262566
0.262604
0.262641
0.262679
0.262679
0.262716
0.262754
0.262791
0.262829
0.262829
0.262866
0.262904
0.262942
0.26298
0.26298
0.263017
0.263055
0.263093
0.263131
0.263131
0.263169
0.263207
0.263245
0.263283
0.263283
0.263321
0.263359
0.263397
0.263435
0.263435
0.263473
0.263511
0.26355
0.263588
0.263588
0.263626
0.263665
0.263703
0.263741
0.263741
0.26378
0.263818
0.263857
0.263895
0.263895
0.263934
0.263972
0.264011
0.26405
0.26405
0.264089
0.264127
0.264166
0.264205
0.264205
0.264244
0.264283
0.264321
0.26436
0.26436
0.264399
0.264438
0.264477
0.264517
0.264517
0.264556
0.264595
0.264634
0.264673
0.264673
0.264712
0.264752
0.264791
0.26483
0.26483
0.26487
0.264909
0.264949
0.264988
0.264988
0.265028
0.265067
0.265107
0.265146
0.265146
0.265186
0.265226
0.265265
0.265305
0.265305
0.265345
0.265385
0.265424
0.265464
0.265464
0.265504
0.265544
0.265584
0.265624
0.265624
0.265664
0.265704
0.265744
0.265785
0.265785
0.265825
0.265865
0.265905
0.265946
0.265946
0.265986
0.266026
0.266067
0.266107
0.266107
0.266147
0.266188
0.266228
0.266269
0.266269
0.26631
0.26635
0.266391
0.266431
0.266431
0.266472
0.266513
0.266554
0.266595
0.266595
0.266635
0.266676
0.266717
0.266758
0.266758
0.266799
0.26684
0.266881
0.266922
0.266922
0.266963
0.267004
0.267046
0.267087
0.267087
0.267128
0.267169
0.267211
0.267252
0.267252
0.267293
0.267335
0.267376
0.267418
0.267418
0.267459
0.267501
0.267542
0.267584
0.267584
0.267626
0.267667
0.267709
0.267751
0.267751
0.267793
0.267834
0.267876
0.267918
0.267918
0.26796
0.268002
0.268044
0.268086
0.268086
0.268128
0.26817
0.268212
0.268254
0.268254
0.268297
0.268339
0.268381
0.268423
0.268423
0.268466
0.268508
0.26855
0.268593
0.268593
0.268635
0.268678
0.26872
0.268763
0.268763
0.268805
0.268848
0.268891
0.268933
0.268933
0.268976
0.269019
0.269062
0.269104
0.269104
0.269147
0.26919
0.269233
0.269276
0.269276
0.269319
0.269362
0.269405
0.269448
0.269448
0.269491
0.269534
0.269577
0.269621
0.269621
0.269664
0.269707
0.269751
0.269794
0.269794
0.269837
0.269881
0.269924
0.269968
0.269968
0.270011
0.270055
0.270098
0.270142
0.270142
0.270186
0.270229
0.270273
0.270317
0.270317
0.27036
0.270404
0.270448
0.270492
0.270492
0.270536
0.27058
0.270624
0.270668
0.270668
0.270712
0.270756
0.2708
0.270844
0.270844
0.270888
0.270933
0.270977
0.271021
0.271021
0.271065
0.27111
0.271154
0.271199
0.271199
0.271243
0.271287
0.271332
0.271377
0.271377
0.271421
0.271466
0.27151
0.271555
0.271555
0.2716
0.271645
0.271689
0.271734
0.271734
0.271779
0.271824
0.271869
0.271914
0.271914
0.271959
0.272004
0.272049
0.272094
0.272094
0.272139
0.272184
0.272229
0.272274
0.272274
0.27232
0.272365
0.27241
0.272456
0.272456
0.272501
0.272546
0.272592
0.272637
0.272637
0.272683
0.272728
0.272774
0.27282
0.27282
0.272865
0.272911
0.272957
0.273002
0.273002
0.273048
0.273094
0.27314
0.273186
0.273186
0.273231
0.273277
0.273323
0.273369
0.273369
0.273415
0.273462
0.273508
0.273554
0.273554
0.2736
0.273646
0.273692
0.273739
0.273739
0.273785
0.273831
0.273878
0.273924
0.273924
0.273971
0.274017
0.274063
0.27411
0.27411
0.274157
0.274203
0.27425
0.274297
0.274297
0.274343
0.27439
0.274437
0.274484
0.274484
0.27453
0.274577
0.274624
0.274671
0.274671
0.274718
0.274765
0.274812
0.274859
0.274859
0.274906
0.274953
0.275001
0.275048
0.275048
0.275095
0.275142
0.27519
0.275237
0.275237
0.275284
0.275332
0.275379
0.275427
0.275427
0.275474
0.275522
0.275569
0.275617
0.275617
0.275664
0.275712
0.27576
0.275807
0.275807
0.275855
0.275903
0.275951
0.275999
0.275999
0.276047
0.276095
0.276143
0.276191
0.276191
0.276239
0.276287
0.276335
0.276383
0.276383
0.276431
0.276479
0.276527
0.276576
0.276576
0.276624
0.276672
0.276721
0.276769
0.276769
0.276817
0.276866
0.276914
0.276963
0.276963
0.277011
0.27706
0.277109
0.277157
0.277157
0.277206
0.277255
0.277304
0.277352
0.277352
0.277401
0.27745
0.277499
0.277548
0.277548
0.277597
0.277646
0.277695
0.277744
0.277744
0.277793
0.277842
0.277891
0.27794
0.27794
0.27799
0.278039
0.278088
0.278137
0.278137
0.278187
0.278236
0.278286
0.278335
0.278335
0.278385
0.278434
0.278484
0.278533
0.278533
0.278583
0.278632
0.278682
0.278732
0.278732
0.278782
0.278831
0.278881
0.278931
0.278931
0.278981
0.279031
0.279081
0.279131
0.279131
0.279181
0.279231
0.279281
0.279331
0.279331
0.279381
0.279431
0.279482
0.279532
0.279532
0.279582
0.279632
0.279683
0.279733
0.279733
0.279784
0.279834
0.279884
0.279935
0.279935
0.279986
0.280036
0.280087
0.280137
0.280137
0.280188
0.280239
0.280289
0.28034
0.28034
0.280391
0.280442
0.280493
0.280544
0.280544
0.280595
0.280646
0.280697
0.280748
0.280748
0.280799
0.28085
0.280901
0.280952
0.280952
0.281003
0.281055
0.281106
0.281157
0.281157
0.281208
0.28126
0.281311
0.281363
0.281363
0.281414
0.281466
0.281517
0.281569
0.281569
0.28162
0.281672
0.281724
0.281775
0.281775
0.281827
0.281879
0.281931
0.281982
0.281982
0.282034
0.282086
0.282138
0.28219
0.28219
0.282242
0.282294
0.282346
0.282398
0.282398
0.28245
0.282502
0.282555
0.282607
0.282607
0.282659
0.282711
0.282764
0.282816
0.282816
0.282868
0.282921
0.282973
0.283026
0.283026
0.283078
0.283131
0.283184
0.283236
0.283236
0.283289
0.283341
0.283394
0.283447
0.283447
0.2835
0.283553
0.283605
0.283658
0.283658
0.283711
0.283764
0.283817
0.28387
0.28387
0.283923
0.283976
0.284029
0.284082
0.284082
0.284136
0.284189
0.284242
0.284295
0.284295
0.284349
0.284402
0.284455
0.284509
0.284509
0.284562
0.284616
0.284669
0.284723
0.284723
0.284776
0.28483
0.284884
0.284937
0.284937
0.284991
0.285045
0.285098
0.285152
0.285152
0.285206
0.28526
0.285314
0.285368
0.285368
0.285422
0.285476
0.28553
0.285584
0.285584
0.285638
0.285692
0.285746
0.2858
0.2858
0.285855
0.285909
0.285963
0.286018
0.286018
0.286072
0.286126
0.286181
0.286235
0.286235
0.28629
0.286344
0.286399
0.286453
0.286453
0.286508
0.286563
0.286617
0.286672
0.286672
0.286727
0.286782
0.286836
0.286891
0.286891
0.286946
0.287001
0.287056
0.287111
0.287111
0.287166
0.287221
0.287276
0.287331
0.287331
0.287386
0.287442
0.287497
0.287552
0.287552
0.287607
0.287663
0.287718
0.287773
0.287773
0.287829
0.287884
0.28794
0.287995
0.287995
0.288051
0.288106
0.288162
0.288218
0.288218
0.288273
0.288329
0.288385
0.28844
0.28844
0.288496
0.288552
0.288608
0.288664
0.288664
0.28872
0.288776
0.288832
0.288888
0.288888
0.288944
0.289
0.289056
0.289112
0.289112
0.289168
0.289225
0.289281
0.289337
0.289337
0.289394
0.28945
0.289506
0.289563
0.289563
0.289619
0.289676
0.289732
0.289789
0.289789
0.289845
0.289902
0.289959
0.290015
0.290015
0.290072
0.290129
0.290186
0.290242
0.290242
0.290299
0.290356
0.290413
0.29047
0.29047
0.290527
0.290584
0.290641
0.290698
0.290698
0.290755
0.290812
0.29087
0.290927
0.290927
0.290984
0.291041
0.291099
0.291156
0.291156
0.291213
0.291271
0.291328
0.291386
0.291386
0.291443
0.291501
0.291558
0.291616
0.291616
0.291673
0.291731
0.291789
0.291847
0.291847
0.291904
0.291962
0.29202
0.292078
0.292078
0.292136
0.292194
0.292252
0.29231
0.29231
0.292368
0.292426
0.292484
0.292542
0.292542
0.2926
0.292658
0.292717
0.292775
0.292775
0.292833
0.292891
0.29295
0.293008
0.293008
0.293067
0.293125
0.293183
0.293242
0.293242
0.293301
0.293359
0.293418
0.293476
0.293476
0.293535
0.293594
0.293653
0.293711
0.293711
0.29377
0.293829
0.293888
0.293947
0.293947
0.294006
0.294065
0.294124
0.294183
0.294183
0.294242
0.294301
0.29436
0.294419
0.294419
0.294478
0.294538
0.294597
0.294656
0.294656
0.294715
0.294775
0.294834
0.294894
0.294894
0.294953
0.295013
0.295072
0.295132
0.295132
0.295191
0.295251
0.295311
0.29537
0.29537
0.29543
0.29549
0.29555
0.295609
0.295609
0.295669
0.295729
0.295789
0.295849
0.295849
0.295909
0.295969
0.296029
0.296089
0.296089
0.296149
0.296209
0.29627
0.29633
0.29633
0.29639
0.29645
0.296511
0.296571
0.296571
0.296631
0.296692
0.296752
0.296813
0.296813
0.296873
0.296934
0.296994
0.297055
0.297055
0.297115
0.297176
0.297237
0.297297
0.297297
0.297358
0.297419
0.29748
0.297541
0.297541
0.297602
0.297663
0.297724
0.297784
0.297784
0.297846
0.297907
0.297968
0.298029
0.298029
0.29809
0.298151
0.298212
0.298274
0.298274
0.298335
0.298396
0.298458
0.298519
0.298519
0.29858
0.298642
0.298703
0.298765
0.298765
0.298826
0.298888
0.298949
0.299011
0.299011
0.299073
0.299134
0.299196
0.299258
0.299258
0.29932
0.299382
0.299443
0.299505
0.299505
0.299567
0.299629
0.299691
0.299753
0.299753
0.299815
0.299877
0.29994
0.300002
0.300002
0.300064
0.300126
0.300188
0.300251
0.300251
0.300313
0.300375
0.300438
0.3005
0.3005
0.300563
0.300625
0.300688
0.30075
0.30075
0.300813
0.300875
0.300938
0.301001
0.301001
0.301063
0.301126
0.301189
0.301252
0.301252
0.301315
0.301377
0.30144
0.301503
0.301503
0.301566
0.301629
0.301692
0.301755
0.301755
0.301818
0.301882
0.301945
0.302008
0.302008
0.302071
0.302134
0.302198
0.302261
0.302261
0.302324
0.302388
0.302451
0.302515
0.302515
0.302578
0.302642
0.302705
0.302769
0.302769
0.302832
0.302896
0.30296
0.303023
0.303023
0.303087
0.303151
0.303215
0.303279
0.303279
0.303342
0.303406
0.30347
0.303534
0.303534
0.303598
0.303662
0.303726
0.30379
0.30379
0.303855
0.303919
0.303983
0.304047
0.304047
0.304111
0.304176
0.30424
0.304304
0.304304
0.304369
0.304433
0.304498
0.304562
0.304562
0.304627
0.304691
0.304756
0.30482
0.30482
0.304885
0.30495
0.305014
0.305079
0.305079
0.305144
0.305209
0.305274
0.305338
0.305338
0.305403
0.305468
0.305533
0.305598
0.305598
0.305663
0.305728
0.305793
0.305859
0.305859
0.305924
0.305989
0.306054
0.306119
0.306119
0.306185
0.30625
0.306315
0.306381
0.306381
0.306446
0.306512
0.306577
0.306643
0.306643
0.306708
0.306774
0.306839
0.306905
0.306905
0.306971
0.307036
0.307102
0.307168
0.307168
0.307234
0.3073
0.307365
0.307431
0.307431
0.307497
0.307563
0.307629
0.307695
0.307695
0.307761
0.307827
0.307894
0.30796
0.30796
0.308026
0.308092
0.308158
0.308225
0.308225
0.308291
0.308357
0.308424
0.30849
0.30849
0.308557
0.308623
0.30869
0.308756
0.308756
0.308823
0.308889
0.308956
0.309023
0.309023
0.309089
0.309156
0.309223
0.30929
0.30929
0.309356
0.309423
0.30949
0.309557
0.309557
0.309624
0.309691
0.309758
0.309825
0.309825
0.309892
0.309959
0.310027
0.310094
0.310094
0.310161
0.310228
0.310296
0.310363
0.310363
0.31043
0.310498
0.310565
0.310632
0.310632
0.3107
0.310767
0.310835
0.310903
0.310903
0.31097
0.311038
0.311105
0.311173
0.311173
0.311241
0.311309
0.311376
0.311444
0.311444
0.311512
0.31158
0.311648
0.311716
0.311716
0.311784
0.311852
0.31192
0.311988
0.311988
0.312056
0.312124
0.312193
0.312261
0.312261
0.312329
0.312397
0.312466
0.312534
0.312534
0.312602
0.312671
0.312739
0.312808
0.312808
0.312876
0.312945
0.313013
0.313082
0.313082
0.31315
0.313219
0.313288
0.313356
0.313356
0.313425
0.313494
0.313563
0.313632
0.313632
0.313701
0.313769
0.313838
0.313907
0.313907
0.313976
0.314045
0.314115
0.314184
0.314184
0.314253
0.314322
0.314391
0.31446
0.31446
0.31453
0.314599
0.314668
0.314738
0.314738
0.314807
0.314877
0.314946
0.315015
0.315015
0.315085
0.315155
0.315224
0.315294
0.315294
0.315363
0.315433
0.315503
0.315573
0.315573
0.315642
0.315712
0.315782
0.315852
0.315852
0.315922
0.315992
0.316062
0.316132
0.316132
0.316202
0.316272
0.316342
0.316412
0.316412
0.316482
0.316552
0.316623
0.316693
0.316693
0.316763
0.316833
0.316904
0.316974
0.316974
0.317045
0.317115
0.317186
0.317256
0.317256
0.317327
0.317397
0.317468
0.317538
0.317538
0.317609
0.31768
0.31775
0.317821
0.317821
0.317892
0.317963
0.318034
0.318105
0.318105
0.318176
0.318247
0.318318
0.318389
0.318389
0.31846
0.318531
0.318602
0.318673
0.318673
0.318744
0.318815
0.318887
0.318958
0.318958
0.319029
0.3191
0.319172
0.319243
0.319243
0.319315
0.319386
0.319458
0.319529
0.319529
0.319601
0.319672
0.319744
0.319816
0.319816
0.319887
0.319959
0.320031
0.320103
0.320103
0.320174
0.320246
0.320318
0.32039
0.32039
0.320462
0.320534
0.320606
0.320678
0.320678
0.32075
0.320822
0.320894
0.320966
0.320966
0.321039
0.321111
0.321183
0.321255
0.321255
0.321328
0.3214
0.321472
0.321545
0.321545
0.321617
0.32169
0.321762
0.321835
0.321835
0.321907
0.32198
0.322053
0.322125
0.322125
0.322198
0.322271
0.322344
0.322416
0.322416
0.322489
0.322562
0.322635
0.322708
0.322708
0.322781
0.322854
0.322927
0.323
0.323
0.323073
0.323146
0.323219
0.323292
0.323292
0.323366
0.323439
0.323512
0.323585
0.323585
0.323659
0.323732
0.323806
0.323879
0.323879
0.323952
0.324026
0.324099
0.324173
0.324173
0.324247
0.32432
0.324394
0.324468
0.324468
0.324541
0.324615
0.324689
0.324763
0.324763
0.324836
0.32491
0.324984
0.325058
0.325058
0.325132
0.325206
0.32528
0.325354
0.325354
0.325428
0.325502
0.325577
0.325651
0.325651
0.325725
0.325799
0.325874
0.325948
0.325948
0.326022
0.326097
0.326171
0.326245
0.326245
0.32632
0.326394
0.326469
0.326544
0.326544
0.326618
0.326693
0.326767
0.326842
0.326842
0.326917
0.326992
0.327066
0.327141
0.327141
0.327216
0.327291
0.327366
0.327441
0.327441
0.327516
0.327591
0.327666
0.327741
0.327741
0.327816
0.327891
0.327966
0.328041
0.328041
0.328117
0.328192
0.328267
0.328343
0.328343
0.328418
0.328493
0.328569
0.328644
0.328644
0.32872
0.328795
0.328871
0.328946
0.328946
0.329022
0.329098
0.329173
0.329249
0.329249
0.329325
0.3294
0.329476
0.329552
0.329552
0.329628
0.329704
0.32978
0.329856
0.329856
0.329932
0.330008
0.330084
0.33016
0.33016
0.330236
0.330312
0.330388
0.330464
0.330464
0.330541
0.330617
0.330693
0.33077
0.33077
0.330846
0.330922
0.330999
0.331075
0.331075
0.331152
0.331228
0.331305
0.331381
0.331381
0.331458
0.331535
0.331611
0.331688
0.331688
0.331765
0.331841
0.331918
0.331995
0.331995
0.332072
0.332149
0.332226
0.332303
0.332303
0.33238
0.332457
0.332534
0.332611
0.332611
0.332688
0.332765
0.332842
0.332919
0.332919
0.332997
0.333074
0.333151
0.333229
0.333229
0.333306
0.333383
0.333461
0.333538
0.333538
0.333616
0.333693
0.333771
0.333848
0.333848
0.333926
0.334004
0.334081
0.334159
0.334159
0.334237
0.334314
0.334392
0.33447
0.33447
0.334548
0.334626
0.334704
0.334782
0.334782
0.33486
0.334938
0.335016
0.335094
0.335094
0.335172
0.33525
0.335328
0.335407
0.335407
0.335485
0.335563
0.335641
0.33572
0.33572
0.335798
0.335876
0.335955
0.336033
0.336033
0.336112
0.33619
0.336269
0.336347
0.336347
0.336426
0.336505
0.336583
0.336662
0.336662
0.336741
0.33682
0.336898
0.336977
0.336977
0.337056
0.337135
0.337214
0.337293
0.337293
0.337372
0.337451
0.33753
0.337609
0.337609
0.337688
0.337767
0.337846
0.337926
0.337926
0.338005
0.338084
0.338163
0.338243
0.338243
0.338322
0.338401
0.338481
0.33856
0.33856
0.33864
0.338719
0.338799
0.338878
0.338878
0.338958
0.339038
0.339117
0.339197
0.339197
0.339277
0.339357
0.339436
0.339516
0.339516
0.339596
0.339676
0.339756
0.339836
0.339836
0.339916
0.339996
0.340076
0.340156
0.340156
0.340236
0.340316
0.340396
0.340477
0.340477
0.340557
0.340637
0.340717
0.340798
0.340798
0.340878
0.340958
0.341039
0.341119
0.341119
0.3412
0.34128
0.341361
0.341441
0.341441
0.341522
0.341603
0.341683
0.341764
0.341764
0.341845
0.341925
0.342006
0.342087
0.342087
0.342168
0.342249
0.34233
0.342411
0.342411
0.342492
0.342573
0.342654
0.342735
0.342735
0.342816
0.342897
0.342978
0.343059
0.343059
0.34314
0.343222
0.343303
0.343384
0.343384
0.343466
0.343547
0.343628
0.34371
0.34371
0.343791
0.343873
0.343954
0.344036
0.344036
0.344118
0.344199
0.344281
0.344362
0.344362
0.344444
0.344526
0.344608
0.34469
0.34469
0.344771
0.344853
0.344935
0.345017
0.345017
0.345099
0.345181
0.345263
0.345345
0.345345
0.345427
0.345509
0.345591
0.345674
0.345674
0.345756
0.345838
0.34592
0.346003
0.346003
0.346085
0.346167
0.34625
0.346332
0.346332
0.346415
0.346497
0.34658
0.346662
0.346662
0.346745
0.346827
0.34691
0.346993
0.346993
0.347075
0.347158
0.347241
0.347324
0.347324
0.347406
0.347489
0.347572
0.347655
0.347655
0.347738
0.347821
0.347904
0.347987
0.347987
0.34807
0.348153
0.348236
0.34832
0.34832
0.348403
0.348486
0.348569
0.348653
0.348653
0.348736
0.348819
0.348903
0.348986
0.348986
0.349069
0.349153
0.349236
0.34932
0.34932
0.349403
0.349487
0.349571
0.349654
0.349654
0.349738
0.349822
0.349906
0.349989
0.349989
0.350073
0.350157
0.350241
0.350325
0.350325
0.350409
0.350493
0.350577
0.350661
0.350661
0.350745
0.350829
0.350913
0.350997
0.350997
0.351081
0.351165
0.35125
0.351334
0.351334
0.351418
0.351503
0.351587
0.351671
0.351671
0.351756
0.35184
0.351925
0.352009
0.352009
0.352094
0.352178
0.352263
0.352348
0.352348
0.352432
0.352517
0.352602
0.352686
0.352686
0.352771
0.352856
0.352941
0.353026
0.353026
0.353111
0.353196
0.353281
0.353366
0.353366
0.353451
0.353536
0.353621
0.353706
0.353706
0.353791
0.353876
0.353961
0.354047
0.354047
0.354132
0.354217
0.354303
0.354388
0.354388
0.354473
0.354559
0.354644
0.35473
0.35473
0.354815
0.354901
0.354986
0.355072
0.355072
0.355158
0.355243
0.355329
0.355415
0.355415
0.3555
0.355586
0.355672
0.355758
0.355758
0.355844
0.35593
0.356016
0.356102
0.356102
0.356188
0.356274
0.35636
0.356446
0.356446
0.356532
0.356618
0.356704
0.356791
0.356791
0.356877
0.356963
0.357049
0.357136
0.357136
0.357222
0.357309
0.357395
0.357481
0.357481
0.357568
0.357655
0.357741
0.357828
0.357828
0.357914
0.358001
0.358088
0.358174
0.358174
0.358261
0.358348
0.358435
0.358521
0.358521
0.358608
0.358695
0.358782
0.358869
0.358869
0.358956
0.359043
0.35913
0.359217
0.359217
0.359304
0.359391
0.359479
0.359566
0.359566
0.359653
0.35974
0.359828
0.359915
0.359915
0.360002
0.36009
0.360177
0.360264
0.360264
0.360352
0.360439
0.360527
0.360614
0.360614
0.360702
0.36079
0.360877
0.360965
0.360965
0.361053
0.36114
0.361228
0.361316
0.361316
0.361404
0.361492
0.36158