<?xml version="1.0"?>
<VTKFile type="UnstructuredGrid" version="0.1" byte_order="LittleEndian">
<UnstructuredGrid>
<Piece NumberOfPoints="5000" NumberOfCells="4000">
<PointData Scalars="Reaction 0">
<DataArray type="Float32" Name="Reaction 0" format="ascii">
0.176113
0.176113
0.176113
0.176113
0.176113
0.176113
0.176114
0.176114
0.176114
0.176114
0.176114
0.176115
0.176115
0.176115
0.176116
0.176116
0.176116
0.176117
0.176117
0.176118
0.176118
0.176118
0.176119
0.176119
0.17612
0.17612
0.176121
0.176121
0.176122
0.176123
0.176123
0.176124
0.176125
0.176126
0.176126
0.176126
0.176127
0.176128
0.176129
0.17613
0.17613
0.176132
0.176133
0.176134
0.176135
0.176135
0.176136
0.176138
0.176139
0.17614
0.17614
0.176142
0.176143
0.176144
0.176146
0.176146
0.176147
0.176149
0.17615
0.176152
0.176152
0.176154
0.176155
0.176157
0.176159
0.176159
0.176161
0.176162
0.176164
0.176166
0.176166
0.176168
0.17617
0.176172
0.176174
0.176174
0.176176
0.176178
0.17618
0.176182
0.176182
0.176184
0.176187
0.176189
0.176191
0.176191
0.176194
0.176196
0.176198
0.176201
0.176201
0.176203
0.176206
0.176208
0.176211
0.176211
0.176213
0.176216
0.176218
0.176221
0.176221
0.176224
0.176227
0.176229
0.176232
0.176232
0.176235
0.176238
0.176241
0.176244
0.176244
0.176247
0.17625
0.176253
0.176256
0.176256
0.176259
0.176262
0.176265
0.176269
0.176269
0.176272
0.176275
0.176279
0.176282
0.176282
0.176285
0.176289
0.176292
0.176296
0.176296
0.176299
0.176303
0.176306
0.17631
0.17631
0.176314
0.176317
0.176321
0.176325
0.176325
0.176329
0.176332
0.176336
0.17634
0.17634
0.176344
0.176348
0.176352
0.176356
0.176356
0.17636
0.176364
0.176368
0.176373
0.176373
0.176377
0.176381
0.176385
0.17639
0.17639
0.176394
0.176398
0.176403
0.176407
0.176407
0.176412
0.176416
0.176421
0.176425
0.176425
0.17643
0.176434
0.176439
0.176444
0.176444
0.176449
0.176453
0.176458
0.176463
0.176463
0.176468
0.176473
0.176478
0.176483
0.176483
0.176488
0.176493
0.176498
0.176503
0.176503
0.176508
0.176513
0.176518
0.176524
0.176524
0.176529
0.176534
0.17654
0.176545
0.176545
0.17655
0.176556
0.176561
0.176567
0.176567
0.176572
0.176578
0.176584
0.176589
0.176589
0.176595
0.176601
0.176606
0.176612
0.176612
0.176618
0.176624
0.17663
0.176636
0.176636
0.176642
0.176648
0.176654
0.17666
0.17666
0.176666
0.176672
0.176678
0.176684
0.176684
0.176691
0.176697
0.176703
0.176709
0.176709
0.176716
0.176722
0.176729
0.176735
0.176735
0.176742
0.176748
0.176755
0.176761
0.176761
0.176768
0.176775
0.176781
0.176788
0.176788
0.176795
0.176802
0.176808
0.176815
0.176815
0.176822
0.176829
0.176836
0.176843
0.176843
0.17685
0.176857
0.176864
0.176871
0.176871
0.176879
0.176886
0.176893
0.1769
0.1769
0.176908
0.176915
0.176922
0.17693
0.17693
0.176937
0.176945
0.176952
0.17696
0.17696
0.176967
0.176975
0.176982
0.17699
0.17699
0.176998
0.177006
0.177013
0.177021
0.177021
0.177029
0.177037
0.177045
0.177053
0.177053
0.177061
0.177069
0.177077
0.177085
0.177085
0.177093
0.177101
0.177109
0.177118
0.177118
0.177126
0.177134
0.177142
0.177151
0.177151
0.177159
0.177168
0.177176
0.177185
0.177185
0.177193
0.177202
0.17721
0.177219
0.177219
0.177227
0.177236
0.177245
0.177254
0.177254
0.177262
0.177271
0.17728
0.177289
0.177289
0.177298
0.177307
0.177316
0.177325
0.177325
0.177334
0.177343
0.177352
0.177361
0.177361
0.177371
0.17738
0.177389
0.177398
0.177398
0.177408
0.177417
0.177426
0.177436
0.177436
0.177445
0.177455
0.177464
0.177474
0.177474
0.177484
0.177493
0.177503
0.177513
0.177513
0.177522
0.177532
0.177542
0.177552
0.177552
0.177562
0.177572
0.177581
0.177591
0.177591
0.177601
0.177612
0.177622
0.177632
0.177632
0.177642
0.177652
0.177662
0.177672
0.177672
0.177683
0.177693
0.177703
0.177714
0.177714
0.177724
0.177735
0.177745
0.177756
0.177756
0.177766
0.177777
0.177787
0.177798
0.177798
0.177809
0.177819
0.17783
0.177841
0.177841
0.177852
0.177863
0.177874
0.177884
0.177884
0.177895
0.177906
0.177917
0.177929
0.177929
0.17794
0.177951
0.177962
0.177973
0.177973
0.177984
0.177996
0.178007
0.178018
0.178018
0.17803
0.178041
0.178052
0.178064
0.178064
0.178075
0.178087
0.178098
0.17811
0.17811
0.178122
0.178133
0.178145
0.178157
0.178157
0.178169
0.17818
0.178192
0.178204
0.178204
0.178216
0.178228
0.17824
0.178252
0.178252
0.178264
0.178276
0.178288
0.1783
0.1783
0.178312
0.178325
0.178337
0.178349
0.178349
0.178361
0.178374
0.178386
0.178399
0.178399
0.178411
0.178423
0.178436
0.178448
0.178448
0.178461
0.178474
0.178486
0.178499
0.178499
0.178512
0.178524
0.178537
0.17855
0.17855
0.178563
0.178576
0.178589
0.178602
0.178602
0.178615
0.178628
0.178641
0.178654
0.178654
0.178667
0.17868
0.178693
0.178707
0.178707
0.17872
0.178733
0.178746
0.17876
0.17876
0.178773
0.178787
0.1788
0.178814
0.178814
0.178827
0.178841
0.178854
0.178868
0.178868
0.178881
0.178895
0.178909
0.178923
0.178923
0.178936
0.17895
0.178964
0.178978
0.178978
0.178992
0.179006
0.17902
0.179034
0.179034
0.179048
0.179062
0.179076
0.17909
0.17909
0.179105
0.179119
0.179133
0.179147
0.179147
0.179162
0.179176
0.179191
0.179205
0.179205
0.17922
0.179234
0.179249
0.179263
0.179263
0.179278
0.179292
0.179307
0.179322
0.179322
0.179337
0.179351
0.179366
0.179381
0.179381
0.179396
0.179411
0.179426
0.179441
0.179441
0.179456
0.179471
0.179486
0.179501
0.179501
0.179516
0.179531
0.179547
0.179562
0.179562
0.179577
0.179592
0.179608
0.179623
0.179623
0.179639
0.179654
0.17967
0.179685
0.179685
0.179701
0.179716
0.179732
0.179748
0.179748
0.179763
0.179779
0.179795
0.179811
0.179811
0.179826
0.179842
0.179858
0.179874
0.179874
0.17989
0.179906
0.179922
0.179938
0.179938
0.179954
0.17997
0.179987
0.180003
0.180003
0.180019
0.180035
0.180052
0.180068
0.180068
0.180084
0.180101
0.180117
0.180134
0.180134
0.18015
0.180167
0.180183
0.1802
0.1802
0.180216
0.180233
0.18025
0.180267
0.180267
0.180283
0.1803
0.180317
0.180334
0.180334
0.180351
0.180368
0.180385
0.180402
0.180402
0.180419
0.180436
0.180453
0.18047
0.18047
0.180487
0.180505
0.180522
0.180539
0.180539
0.180556
0.180574
0.180591
0.180609
0.180609
0.180626
0.180644
0.180661
0.180679
0.180679
0.180696
0.180714
0.180732
0.180749
0.180749
0.180767
0.180785
0.180803
0.18082
0.18082
0.180838
0.180856
0.180874
0.180892
0.180892
0.18091
0.180928
0.180946
0.180964
0.180964
0.180982
0.181001
0.181019
0.181037
0.181037
0.181055
0.181074
0.181092
0.18111
0.18111
0.181129
0.181147
0.181166
0.181184
0.181184
0.181203
0.181221
0.18124
0.181259
0.181259
0.181277
0.181296
0.181315
0.181334
0.181334
0.181352
0.181371
0.18139
0.181409
0.181409
0.181428
0.181447
0.181466
0.181485
0.181485
0.181504
0.181523
0.181542
0.181562
0.181562
0.181581
0.1816
0.181619
0.181639
0.181639
0.181658
0.181677
0.181697
0.181716
0.181716
0.181736
0.181755
0.181775
0.181795
0.181795
0.181814
0.181834
0.181854
0.181873
0.181873
0.181893
0.181913
0.181933
0.181953
0.181953
0.181972
0.181992
0.182012
0.182032
0.182032
0.182052
0.182072
0.182093
0.182113
0.182113
0.182133
0.182153
0.182173
0.182194
0.182194
0.182214
0.182234
0.182255
0.182275
0.182275
0.182296
0.182316
0.182337
0.182357
0.182357
0.182378
0.182398
0.182419
0.18244
0.18244
0.18246
0.182481
0.182502
0.182523
0.182523
0.182544
0.182565
0.182585
0.182606
0.182606
0.182627
0.182648
0.182669
0.182691
0.182691
0.182712
0.182733
0.182754
0.182775
0.182775
0.182797
0.182818
0.182839
0.182861
0.182861
0.182882
0.182903
0.182925
0.182946
0.182946
0.182968
0.18299
0.183011
0.183033
0.183033
0.183054
0.183076
0.183098
0.18312
0.18312
0.183141
0.183163
0.183185
0.183207
0.183207
0.183229
0.183251
0.183273
0.183295
0.183295
0.183317
0.183339
0.183361
0.183384
0.183384
0.183406
0.183428
0.18345
0.183473
0.183473
0.183495
0.183517
0.18354
0.183562
0.183562
0.183585
0.183607
0.18363
0.183653
0.183653
0.183675
0.183698
0.183721
0.183743
0.183743
0.183766
0.183789
0.183812
0.183835
0.183835
0.183857
0.18388
0.183903
0.183926
0.183926
0.183949
0.183972
0.183996
0.184019
0.184019
0.184042
0.184065
0.184088
0.184112
0.184112
0.184135
0.184158
0.184182
0.184205
0.184205
0.184228
0.184252
0.184275
0.184299
0.184299
0.184323
0.184346
0.18437
0.184394
0.184394
0.184417
0.184441
0.184465
0.184489
0.184489
0.184513
0.184536
0.18456
0.184584
0.184584
0.184608
0.184632
0.184656
0.18468
0.18468
0.184705
0.184729
0.184753
0.184777
0.184777
0.184801
0.184826
0.18485
0.184874
0.184874
0.184899
0.184923
0.184948
0.184972
0.184972
0.184997
0.185021
0.185046
0.185071
0.185071
0.185095
0.18512
0.185145
0.18517
0.18517
0.185194
0.185219
0.185244
0.185269
0.185269
0.185294
0.185319
0.185344
0.185369
0.185369
0.185394
0.185419
0.185444
0.18547
0.18547
0.185495
0.18552
0.185545
0.185571
0.185571
0.185596
0.185621
0.185647
0.185672
0.185672
0.185698
0.185723
0.185749
0.185774
0.185774
0.1858
0.185826
0.185851
0.185877
0.185877
0.185903
0.185929
0.185955
0.18598
0.18598
0.186006
0.186032
0.186058
0.186084
0.186084
0.18611
0.186136
0.186163
0.186189
0.186189
0.186215
0.186241
0.186267
0.186294
0.186294
0.18632
0.186346
0.186373
0.186399
0.186399
0.186426
0.186452
0.186479
0.186505
0.186505
0.186532
0.186558
0.186585
0.186612
0.186612
0.186638
0.186665
0.186692
0.186719
0.186719
0.186746
0.186773
0.186799
0.186826
0.186826
0.186853
0.18688
0.186908
0.186935
0.186935
0.186962
0.186989
0.187016
0.187043
0.187043
0.187071
0.187098
0.187125
0.187153
0.187153
0.18718
0.187208
0.187235
0.187263
0.187263
0.18729
0.187318
0.187345
0.187373
0.187373
0.187401
0.187428
0.187456
0.187484
0.187484
0.187512
0.18754
0.187567
0.187595
0.187595
0.187623
0.187651
0.187679
0.187707
0.187707
0.187735
0.187764
0.187792
0.18782
0.18782
0.187848
0.187876
0.187905
0.187933
0.187933
0.187961
0.18799
0.188018
0.188047
0.188047
0.188075
0.188104
0.188132
0.188161
0.188161
0.18819
0.188218
0.188247
0.188276
0.188276
0.188305
0.188333
0.188362
0.188391
0.188391
0.18842
0.188449
0.188478
0.188507
0.188507
0.188536
0.188565
0.188594
0.188623
0.188623
0.188653
0.188682
0.188711
0.18874
0.18874
0.18877
0.188799
0.188828
0.188858
0.188858
0.188887
0.188917
0.188946
0.188976
0.188976
0.189006
0.189035
0.189065
0.189095
0.189095
0.189124
0.189154
0.189184
0.189214
0.189214
0.189244
0.189274
0.189304
0.189333
0.189333
0.189364
0.189394
0.189424
0.189454
0.189454
0.189484
0.189514
0.189544
0.189575
0.189575
0.189605
0.189635
0.189666
0.189696
0.189696
0.189726
0.189757
0.189787
0.189818
0.189818
0.189848
0.189879
0.18991
0.18994
0.18994
0.189971
0.190002
0.190033
0.190063
0.190063
0.190094
0.190125
0.190156
0.190187
0.190187
0.190218
0.190249
0.19028
0.190311
0.190311
0.190342
0.190373
0.190404
0.190436
0.190436
0.190467
0.190498
0.19053
0.190561
0.190561
0.190592
0.190624
0.190655
0.190687
0.190687
0.190718
0.19075
0.190781
0.190813
0.190813
0.190845
0.190876
0.190908
0.19094
0.19094
0.190972
0.191003
0.191035
0.191067
0.191067
0.191099
0.191131
0.191163
0.191195
0.191195
0.191227
0.191259
0.191292
0.191324
0.191324
0.191356
0.191388
0.19142
0.191453
0.191453
0.191485
0.191517
0.19155
0.191582
0.191582
0.191615
0.191647
0.19168
0.191713
0.191713
0.191745
0.191778
0.191811
0.191843
0.191843
0.191876
0.191909
0.191942
0.191974
0.191974
0.192007
0.19204
0.192073
0.192106
0.192106
0.192139
0.192172
0.192206
0.192239
0.192239
0.192272
0.192305
0.192338
0.192372
0.192372
0.192405
0.192438
0.192472
0.192505
0.192505
0.192539
0.192572
0.192606
0.192639
0.192639
0.192673
0.192706
0.19274
0.192774
0.192774
0.192807
0.192841
0.192875
0.192909
0.192909
0.192943
0.192977
0.19301
0.193044
0.193044
0.193078
0.193112
0.193147
0.193181
0.193181
0.193215
0.193249
0.193283
0.193317
0.193317
0.193352
0.193386
0.19342
0.193455
0.193455
0.193489
0.193524
0.193558
0.193593
0.193593
0.193627
0.193662
0.193696
0.193731
0.193731
0.193766
0.1938
0.193835
0.19387
0.19387
0.193905
0.19394
0.193975
0.19401
0.19401
0.194045
0.19408
0.194115
0.19415
0.19415
0.194185
0.19422
0.194255
0.19429
0.19429
0.194326
0.194361
0.194396
0.194431
0.194431
0.194467
0.194502
0.194538
0.194573
0.194573
0.194609
0.194644
0.19468
0.194716
0.194716
0.194751
0.194787
0.194823
0.194858
0.194858
0.194894
0.19493
0.194966
0.195002
0.195002
0.195038
0.195074
0.19511
0.195146
0.195146
0.195182
0.195218
0.195254
0.19529
0.19529
0.195326
0.195363
0.195399
0.195435
0.195435
0.195472
0.195508
0.195544
0.195581
0.195581
0.195617
0.195654
0.19569
0.195727
0.195727
0.195764
0.1958
0.195837
0.195874
0.195874
0.195911
0.195947
0.195984
0.196021
0.196021
0.196058
0.196095
0.196132
0.196169
0.196169
0.196206
0.196243
0.19628
0.196317
0.196317
0.196354
0.196392
0.196429
0.196466
0.196466
0.196503
0.196541
0.196578
0.196616
0.196616
0.196653
0.196691
0.196728
0.196766
0.196766
0.196803
0.196841
0.196879
0.196916
0.196916
0.196954
0.196992
0.19703
0.197067
0.197067
0.197105
0.197143
0.197181
0.197219
0.197219
0.197257
0.197295
0.197333
0.197371
0.197371
0.197409
0.197448
0.197486
0.197524
0.197524
0.197562
0.197601
0.197639
0.197677
0.197677
0.197716
0.197754
0.197793
0.197831
0.197831
0.19787
0.197909
0.197947
0.197986
0.197986
0.198025
0.198063
0.198102
0.198141
0.198141
0.19818
0.198219
0.198257
0.198296
0.198296
0.198335
0.198374
0.198413
0.198453
0.198453
0.198492
0.198531
0.19857
0.198609
0.198609
0.198648
0.198688
0.198727
0.198766
0.198766
0.198806
0.198845
0.198885
0.198924
0.198924
0.198964
0.199003
0.199043
0.199083
0.199083
0.199122
0.199162
0.199202
0.199241
0.199241
0.199281
0.199321
0.199361
0.199401
0.199401
0.199441
0.199481
0.199521
0.199561
0.199561
0.199601
0.199641
0.199681
0.199722
0.199722
0.199762
0.199802
0.199842
0.199883
0.199883
0.199923
0.199963
0.200004
0.200044
0.200044
0.200085
0.200125
0.200166
0.200207
0.200207
0.200247
0.200288
0.200329
0.200369
0.200369
0.20041
0.200451
0.200492
0.200533
0.200533
0.200574
0.200615
0.200656
0.200697
0.200697
0.200738
0.200779
0.20082
0.200861
0.200861
0.200902
0.200943
0.200985
0.201026
0.201026
0.201067
0.201109
0.20115
0.201192
0.201192
0.201233
0.201275
0.201316
0.201358
0.201358
0.201399
0.201441
0.201483
0.201524
0.201524
0.201566
0.201608
0.20165
0.201692
0.201692
0.201733
0.201775
0.201817
0.201859
0.201859
0.201901
0.201943
0.201986
0.202028
0.202028
0.20207
0.202112
0.202154
0.202197
0.202197
0.202239
0.202281
0.202324
0.202366
0.202366
0.202409
0.202451
0.202494
0.202536
0.202536
0.202579
0.202621
0.202664
0.202707
0.202707
0.202749
0.202792
0.202835
0.202878
0.202878
0.202921
0.202964
0.203006
0.203049
0.203049
0.203092
0.203135
0.203179
0.203222
0.203222
0.203265
0.203308
0.203351
0.203394
0.203394
0.203438
0.203481
0.203524
0.203568
0.203568
0.203611
0.203655
0.203698
0.203742
0.203742
0.203785
0.203829
0.203873
0.203916
0.203916
0.20396
0.204004
0.204047
0.204091
0.204091
0.204135
0.204179
0.204223
0.204267
0.204267
0.204311
0.204355
0.204399
0.204443
0.204443
0.204487
0.204531
0.204575
0.20462
0.20462
0.204664
0.204708
0.204752
0.204797
0.204797
0.204841
0.204886
0.20493
0.204975
0.204975
0.205019
0.205064
0.205108
0.205153
0.205153
0.205198
0.205242
0.205287
0.205332
0.205332
0.205377
0.205422
0.205467
0.205511
0.205511
0.205556
0.205601
0.205646
0.205691
0.205691
0.205737
0.205782
0.205827
0.205872
0.205872
0.205917
0.205963
0.206008
0.206053
0.206053
0.206099
0.206144
0.206189
0.206235
0.206235
0.20628
0.206326
0.206372
0.206417
0.206417
0.206463
0.206509
0.206554
0.2066
0.2066
0.206646
0.206692
0.206738
0.206783
0.206783
0.206829
0.206875
0.206921
0.206967
0.206967
0.207013
0.20706
0.207106
0.207152
0.207152
0.207198
0.207244
0.207291
0.207337
0.207337
0.207383
0.20743
0.207476
0.207523
0.207523
0.207569
0.207616
0.207662
0.207709
0.207709
0.207755
0.207802
0.207849
0.207896
0.207896
0.207942
0.207989
0.208036
0.208083
0.208083
0.20813
0.208177
0.208224
0.208271
0.208271
0.208318
0.208365
0.208412
0.208459
0.208459
0.208506
0.208554
0.208601
0.208648
0.208648
0.208695
0.208743
0.20879
0.208838
0.208838
0.208885
0.208933
0.20898
0.209028
0.209028
0.209075
0.209123
0.209171
0.209218
0.209218
0.209266
0.209314
0.209362
0.20941
0.20941
0.209457
0.209505
0.209553
0.209601
0.209601
0.209649
0.209697
0.209746
0.209794
0.209794
0.209842
0.20989
0.209938
0.209987
0.209987
0.210035
0.210083
0.210132
0.21018
0.21018
0.210228
0.210277
0.210325
0.210374
0.210374
0.210423
0.210471
0.21052
0.210569
0.210569
0.210617
0.210666
0.210715
0.210764
0.210764
0.210813
0.210862
0.21091
0.210959
0.210959
0.211008
0.211058
0.211107
0.211156
0.211156
0.211205
0.211254
0.211303
0.211353
0.211353
0.211402
0.211451
0.2115
0.21155
0.21155
0.211599
0.211649
0.211698
0.211748
0.211748
0.211797
0.211847
0.211897
0.211946
0.211946
0.211996
0.212046
0.212096
0.212145
0.212145
0.212195
0.212245
0.212295
0.212345
0.212345
0.212395
0.212445
0.212495
0.212545
0.212545
0.212595
0.212645
0.212696
0.212746
0.212746
0.212796
0.212847
0.212897
0.212947
0.212947
0.212998
0.213048
0.213099
0.213149
0.213149
0.2132
0.21325
0.213301
0.213352
0.213352
0.213402
0.213453
0.213504
0.213555
0.213555
0.213605
0.213656
0.213707
0.213758
0.213758
0.213809
0.21386
0.213911
0.213962
0.213962
0.214013
0.214064
0.214116
0.214167
0.214167
0.214218
0.214269
0.214321
0.214372
0.214372
0.214423
0.214475
0.214526
0.214578
0.214578
0.214629
0.214681
0.214733
0.214784
0.214784
0.214836
0.214888
0.214939
0.214991
0.214991
0.215043
0.215095
0.215147
0.215199
0.215199
0.215251
0.215303
0.215355
0.215407
0.215407
0.215459
0.215511
0.215563
0.215615
0.215615
0.215667
0.21572
0.215772
0.215824
0.215824
0.215877
0.215929
0.215982
0.216034
0.216034
0.216087
0.216139
0.216192
0.216244
0.216244
0.216297
0.21635
0.216403
0.216455
0.216455
0.216508
0.216561
0.216614
0.216667
0.216667
0.21672
0.216773
0.216826
0.216879
0.216879
0.216932
0.216985
0.217038
0.217091
0.217091
0.217144
0.217198
0.217251
0.217304
0.217304
0.217358
0.217411
0.217465
0.217518
0.217518
0.217571
0.217625
0.217679
0.217732
0.217732
0.217786
0.21784
0.217893
0.217947
0.217947
0.218001
0.218055
0.218108
0.218162
0.218162
0.218216
0.21827
0.218324
0.218378
0.218378
0.218432
0.218486
0.218541
0.218595
0.218595
0.218649
0.218703
0.218757
0.218812
0.218812
0.218866
0.218921
0.218975
0.219029
0.219029
0.219084
0.219138
0.219193
0.219248
0.219248
0.219302
0.219357
0.219412
0.219466
0.219466
0.219521
0.219576
0.219631
0.219686
0.219686
0.219741
0.219795
0.21985
0.219905
0.219905
0.219961
0.220016
0.220071
0.220126
0.220126
0.220181
0.220236
0.220292
0.220347
0.220347
0.220402
0.220458
0.220513
0.220568
0.220568
0.220624
0.220679
0.220735
0.220791
0.220791
0.220846
0.220902
0.220957
0.221013
0.221013
0.221069
0.221125
0.221181
0.221236
0.221236
0.221292
0.221348
0.221404
0.22146
0.22146
0.221516
0.221572
0.221628
0.221685
0.221685
0.221741
0.221797
0.221853
0.22191
0.22191
0.221966
0.222022
0.222079
0.222135
0.222135
0.222192
0.222248
0.222305
0.222361
0.222361
0.222418
0.222474
0.222531
0.222588
0.222588
0.222645
0.222701
0.222758
0.222815
0.222815
0.222872
0.222929
0.222986
0.223043
0.223043
0.2231
0.223157
0.223214
0.223271
0.223271
0.223328
0.223385
0.223443
0.2235
0.2235
0.223557
0.223615
0.223672
0.223729
0.223729
0.223787
0.223844
0.223902
0.223959
0.223959
0.224017
0.224075
0.224132
0.22419
0.22419
0.224248
0.224305
0.224363
0.224421
0.224421
0.224479
0.224537
0.224595
0.224653
0.224653
0.224711
0.224769
0.224827
0.224885
0.224885
0.224943
0.225001
0.22506
0.225118
0.225118
0.225176
0.225235
0.225293
0.225351
0.225351
0.22541
0.225468
0.225527
0.225585
0.225585
0.225644
0.225703
0.225761
0.22582
0.22582
0.225879
0.225937
0.225996
0.226055
0.226055
0.226114
0.226173
0.226232
0.226291
0.226291
0.22635
0.226409
0.226468
0.226527
0.226527
0.226586
0.226645
0.226704
0.226764
0.226764
0.226823
0.226882
0.226942
0.227001
0.227001
0.22706
0.22712
0.227179
0.227239
0.227239
0.227299
0.227358
0.227418
0.227477
0.227477
0.227537
0.227597
0.227657
0.227717
0.227717
0.227776
0.227836
0.227896
0.227956
0.227956
0.228016
0.228076
0.228136
0.228196
0.228196
0.228256
0.228317
0.228377
0.228437
0.228437
0.228497
0.228558
0.228618
0.228678
0.228678
0.228739
0.228799
0.22886
0.22892
0.22892
0.228981
0.229041
0.229102
0.229163
0.229163
0.229223
0.229284
0.229345
0.229406
0.229406
0.229467
0.229528
0.229588
0.229649
0.229649
0.22971
0.229771
0.229832
0.229894
0.229894
0.229955
0.230016
0.230077
0.230138
0.230138
0.2302
0.230261
0.230322
0.230384
0.230384
0.230445
0.230506
0.230568
0.230629
0.230629
0.230691
0.230753
0.230814
0.230876
0.230876
0.230938
0.230999
0.231061
0.231123
0.231123
0.231185
0.231247
0.231308
0.23137
0.23137
0.231432
0.231494
0.231556
0.231619
0.231619
0.231681
0.231743
0.231805
0.231867
0.231867
0.231929
0.231992
0.232054
0.232116
0.232116
0.232179
0.232241
0.232304
0.232366
0.232366
0.232429
0.232491
0.232554
0.232617
0.232617
0.232679
0.232742
0.232805
0.232868
0.232868
0.23293
0.232993
0.233056
0.233119
0.233119
0.233182
0.233245
0.233308
0.233371
0.233371
0.233434
0.233498
0.233561
0.233624
0.233624
0.233687
0.23375
0.233814
0.233877
0.233877
0.233941
0.234004
0.234067
0.234131
0.234131
0.234195
0.234258
0.234322
0.234385
0.234385
0.234449
0.234513
0.234576
0.23464
0.23464
0.234704
0.234768
0.234832
0.234896
0.234896
0.23496
0.235024
0.235088
0.235152
0.235152
0.235216
0.23528
0.235344
0.235408
0.235408
0.235473
0.235537
0.235601
0.235666
0.235666
0.23573
0.235794
0.235859
0.235923
0.235923
0.235988
0.236053
0.236117
0.236182
0.236182
0.236246
0.236311
0.236376
0.236441
0.236441
0.236505
0.23657
0.236635
0.2367
0.2367
0.236765
0.23683
0.236895
0.23696
0.23696
0.237025
0.23709
0.237156
0.237221
0.237221
0.237286
0.237351
0.237417
0.237482
0.237482
0.237547
0.237613
0.237678
0.237744
0.237744
0.237809
0.237875
0.23794
0.238006
0.238006
0.238072
0.238137
0.238203
0.238269
0.238269
0.238335
0.238401
0.238466
0.238532
0.238532
0.238598
0.238664
0.23873
0.238796
0.238796
0.238862
0.238929
0.238995
0.239061
0.239061
0.239127
0.239193
0.23926
0.239326
0.239326
0.239392
0.239459
0.239525
0.239592
0.239592
0.239658
0.239725
0.239792
0.239858
0.239858
0.239925
0.239991
0.240058
0.240125
0.240125
0.240192
0.240259
0.240326
0.240392
0.240392
0.240459
0.240526
0.240593
0.24066
0.24066
0.240728
0.240795
0.240862
0.240929
0.240929
0.240996
0.241063
0.241131
0.241198
0.241198
0.241265
0.241333
0.2414
0.241468
0.241468
0.241535
0.241603
0.24167
0.241738
0.241738
0.241806
0.241873
0.241941
0.242009
0.242009
0.242077
0.242145
0.242212
0.24228
0.24228
0.242348
0.242416
0.242484
0.242552
0.242552
0.24262
0.242689
0.242757
0.242825
0.242825
0.242893
0.242961
0.24303
0.243098
0.243098
0.243166
0.243235
0.243303
0.243372
0.243372
0.24344
0.243509
0.243577
0.243646
0.243646
0.243715
0.243783
0.243852
0.243921
0.243921
0.24399
0.244058
0.244127
0.244196
0.244196
0.244265
0.244334
0.244403
0.244472
0.244472
0.244541
0.24461
0.244679
0.244749
0.244749
0.244818
0.244887
0.244956
0.245026
0.245026
0.245095
0.245164
0.245234
0.245303
0.245303
0.245373
0.245442
0.245512
0.245582
0.245582
0.245651
0.245721
0.245791
0.24586
0.24586
0.24593
0.246
0.24607
0.24614
0.24614
0.24621
0.24628
0.24635
0.24642
0.24642
0.24649
0.24656
0.24663
0.2467
0.2467
0.24677
0.246841
0.246911
0.246981
0.246981
0.247052
0.247122
0.247193
0.247263
0.247263
0.247334
0.247404
0.247475
0.247545
0.247545
0.247616
0.247687
0.247757
0.247828
0.247828
0.247899
0.24797
0.24804
0.248111
0.248111
0.248182
0.248253
0.248324
0.248395
0.248395
0.248466
0.248537
0.248609
0.24868
0.24868
0.248751
0.248822
0.248894
0.248965
0.248965
0.249036
0.249108
0.249179
0.249251
0.249251
0.249322
0.249394
0.249465
0.249537
0.249537
0.249608
0.24968
0.249752
0.249824
0.249824
0.249895
0.249967
0.250039
0.250111
0.250111
0.250183
0.250255
0.250327
0.250399
0.250399
0.250471
0.250543
0.250615
0.250687
0.250687
0.250759
0.250832
0.250904
0.250976
0.250976
0.251049
0.251121
0.251193
0.251266
0.251266
0.251338
0.251411
0.251484
0.251556
0.251556
0.251629
0.251701
0.251774
0.251847
0.251847
0.25192
0.251993
0.252065
0.252138
0.252138
0.252211
0.252284
0.252357
0.25243
0.25243
0.252503
0.252576
0.252649
0.252723
0.252723
0.252796
0.252869
0.252942
0.253016
0.253016
0.253089
0.253162
0.253236
0.253309
0.253309
0.253383
0.253456
0.25353
0.253603
0.253603
0.253677
0.253751
0.253824
0.253898
0.253898
0.253972
0.254046
0.25412
0.254194
0.254194
0.254267
0.254341
0.254415
0.254489
0.254489
0.254564
0.254638
0.254712
0.254786
0.254786
0.25486
0.254934
0.255009
0.255083
0.255083
0.255157
0.255232
0.255306
0.255381
0.255381
0.255455
0.25553
0.255604
0.255679
0.255679
0.255753
0.255828
0.255903
0.255977
0.255977
0.256052
0.256127
0.256202
0.256277
0.256277
0.256352
0.256427
0.256502
0.256577
0.256577
0.256652
0.256727
0.256802
0.256877
0.256877
0.256952
0.257028
0.257103
0.257178
0.257178
0.257254
0.257329
0.257404
0.25748
0.25748
0.257555
0.257631
0.257706
0.257782
0.257782
0.257858
0.257933
0.258009
0.258085
0.258085
0.25816
0.258236
0.258312
0.258388
0.258388
0.258464
0.25854
0.258616
0.258692
0.258692
0.258768
0.258844
0.25892
0.258996
0.258996
0.259072
0.259149
0.259225
0.259301
0.259301
0.259378
0.259454
0.25953
0.259607
0.259607
0.259683
0.25976
0.259836
0.259913
0.259913
0.25999
0.260066
0.260143
0.26022
0.26022
0.260297
0.260373
0.26045
0.260527
0.260527
0.260604
0.260681
0.260758
0.260835
0.260835
0.260912
0.260989
0.261066
0.261143
0.261143
0.261221
0.261298
0.261375
0.261452
0.261452
0.26153
0.261607
0.261685
0.261762
0.261762
0.261839
0.261917
0.261995
0.262072
0.262072
0.26215
0.262227
0.262305
0.262383
0.262383
0.262461
0.262538
0.262616
0.262694
0.262694
0.262772
0.26285
0.262928
0.263006
0.263006
0.263084
0.263162
0.26324
0.263318
0.263318
0.263397
0.263475
0.263553
0.263631
0.263631
0.26371
0.263788
0.263867
0.263945
0.263945
0.264023
0.264102
0.26418
0.264259
0.264259
0.264338
0.264416
0.264495
0.264574
0.264574
0.264653
0.264731
0.26481
0.264889
0.264889
0.264968
0.265047
0.265126
0.265205
0.265205
0.265284
0.265363
0.265442
0.265521
0.265521
0.265601
0.26568
0.265759
0.265838
0.265838
0.265918
0.265997
0.266076
0.266156
0.266156
0.266235
0.266315
0.266394
0.266474
0.266474
0.266554
0.266633
0.266713
0.266793
0.266793
0.266872
0.266952
0.267032
0.267112
0.267112
0.267192
0.267272
0.267352
0.267432
0.267432
0.267512
0.267592
0.267672
0.267752
0.267752
0.267832
0.267913
0.267993
0.268073
0.268073
0.268154
0.268234
0.268314
0.268395
0.268395
0.268475
0.268556
0.268636
0.268717
0.268717
0.268797
0.268878
0.268959
0.26904
0.26904
0.26912
0.269201
0.269282
0.269363
0.269363
0.269444
0.269525
0.269606
0.269687
0.269687
0.269768
0.269849
0.26993
0.270011
0.270011
0.270092
0.270173
0.270255
0.270336
0.270336
0.270417
0.270499
0.27058
0.270661
0.270661
0.270743
0.270824
0.270906
0.270988
0.270988
0.271069
0.271151
0.271233
0.271314
0.271314
0.271396
0.271478
0.27156
0.271642
0.271642
0.271723
0.271805
0.271887
0.271969
0.271969
0.272051
0.272133
0.272216
0.272298
0.272298
0.27238
0.272462
0.272544
0.272627
0.272627
0.272709
0.272791
0.272874
0.272956
0.272956
0.273039
0.273121
0.273204
0.273286
0.273286
0.273369
0.273452
0.273534
0.273617
0.273617
0.2737
0.273782
0.273865
0.273948
0.273948
0.274031
0.274114
0.274197
0.27428
0.27428
0.274363
0.274446
0.274529
0.274612
0.274612
0.274696
0.274779
0.274862
0.274945
0.274945
0.275029
0.275112
0.275195
0.275279
0.275279
0.275362
0.275446
0.275529
0.275613
0.275613
0.275696
0.27578
0.275864
0.275948
0.275948
0.276031
0.276115
0.276199
0.276283
0.276283
0.276367
0.276451
0.276535
0.276619
0.276619
0.276703
0.276787
0.276871
0.276955
0.276955
0.277039
0.277123
0.277207
0.277292
0.277292
0.277376
0.27746
0.277545
0.277629
0.277629
0.277714
0.277798
0.277883
0.277967
0.277967
0.278052
0.278137
0.278221
0.278306
0.278306
0.278391
0.278475
0.27856
0.278645
0.278645
0.27873
0.278815
0.2789
0.278985
0.278985
0.27907
0.279155
0.27924
0.279325
0.279325
0.27941
0.279496
0.279581
0.279666
0.279666
0.279751
0.279837
0.279922
0.280008
0.280008
0.280093
0.280179
0.280264
0.28035
0.28035
0.280435
0.280521
0.280607
0.280692
0.280692
0.280778
0.280864
0.28095
0.281035
0.281035
0.281121
0.281207
0.281293
0.281379
0.281379
0.281465
0.281551
0.281637
0.281724
0.281724
0.28181
0.281896
0.281982
0.282068
0.282068
0.282155
0.282241
0.282327
0.282414
0.282414
0.2825
0.282587
0.282673
0.28276
0.28276
0.282847
0.282933
0.28302
0.283106
0.283106
0.283193
0.28328
0.283367
0.283454
0.283454
0.283541
0.283627
0.283714
0.283801
0.283801
0.283888
0.283975
0.284063
0.28415
0.28415
0.284237
0.284324
0.284411
0.284499
0.284499
0.284586
0.284673
0.284761
0.284848
0.284848
0.284935
0.285023
0.28511
0.285198
0.285198
0.285286
0.285373
0.285461
0.285549
0.285549
0.285636
0.285724
0.285812
0.2859
0.2859
0.285988
0.286075
0.286163
0.286251
0.286251
0.286339
0.286427
0.286516
0.286604
0.286604
0.286692
0.28678
0.286868
0.286956
0.286956
0.287045
0.287133
0.287221
0.28731
0.28731
0.287398
0.287487
0.287575
0.287664
0.287664
0.287752
0.287841
0.28793
0.288018
0.288018
0.288107
0.288196
0.288285
0.288374
0.288374
0.288462
0.288551
0.28864
0.288729
0.288729
0.288818
0.288907
0.288996
0.289085
0.289085
0.289175
0.289264
0.289353
0.289442
0.289442
0.289532
0.289621
0.28971
0.2898
0.2898
0.289889
0.289979
0.290068
0.290158
0.290158
0.290247
0.290337
0.290426
0.290516
0.290516
0.290606
0.290696
0.290785
0.290875
0.290875
0.290965
0.291055
0.291145
0.291235
0.291235
0.291325
0.291415
0.291505
0.291595
0.291595
0.291685
0.291775
0.291866
0.291956
0.291956
0.292046
0.292136
0.292227
0.292317
0.292317
0.292408
0.292498
0.292589
0.292679
0.292679
0.29277
0.29286
0.292951
0.293042
0.293042
0.293132
0.293223
0.293314
0.293405
0.293405
0.293495
0.293586
0.293677
0.293768
0.293768
0.293859
0.29395
0.294041
0.294132
0.294132
0.294223
0.294315
0.294406
0.294497
0.294497
0.294588
0.29468
0.294771
0.294862
0.294862
0.294954
0.295045
0.295137
0.295228
0.295228
0.29532
0.295411
0.295503
0.295595
0.295595
0.295686
0.295778
0.29587
0.295962
0.295962
0.296054
0.296145
0.296237
0.296329
0.296329
0.296421
0.296513
0.296605
0.296697
0.296697
0.29679
0.296882
0.296974
0.297066
0.297066
0.297158
0.297251
0.297343
0.297435
0.297435
0.297528
0.29762
0.297713
0.297805
0.297805
0.297898
0.29799
0.298083
0.298176
0.298176
0.298268
0.298361
0.298454
0.298547
0.298547
0.298639
0.298732
0.298825
0.298918
0.298918
0.299011
0.299104
0.299197
0.29929