<?xml version="1.0"?>
<VTKFile type="UnstructuredGrid" version="0.1" byte_order="LittleEndian">
<UnstructuredGrid>
<Piece NumberOfPoints="5000" NumberOfCells="4000">
<PointData Scalars="Reaction 0">
<DataArray type="Float32" Name="Reaction 0" format="ascii">
0.803944
0.803944
0.803944
0.803944
0.803944
0.803944
0.803944
0.803944
0.803944
0.803944
0.803944
0.803944
0.803944
0.803944
0.803944
0.803944
0.803944
0.803944
0.803944
0.803944
0.803944
0.803944
0.803944
0.803945
0.803945
0.803945
0.803945
0.803945
0.803945
0.803945
0.803945
0.803945
0.803945
0.803946
0.803946
0.803946
0.803946
0.803946
0.803946
0.803946
0.803946
0.803947
0.803947
0.803947
0.803947
0.803947
0.803947
0.803947
0.803948
0.803948
0.803948
0.803948
0.803948
0.803949
0.803949
0.803949
0.803949
0.803949
0.803949
0.80395
0.80395
0.80395
0.80395
0.80395
0.803951
0.803951
0.803951
0.803951
0.803952
0.803952
0.803952
0.803952
0.803953
0.803953
0.803953
0.803953
0.803953
0.803954
0.803954
0.803954
0.803954
0.803955
0.803955
0.803955
0.803956
0.803956
0.803956
0.803957
0.803957
0.803957
0.803957
0.803958
0.803958
0.803958
0.803959
0.803959
0.803959
0.80396
0.80396
0.803961
0.803961
0.803961
0.803961
0.803962
0.803962
0.803962
0.803963
0.803963
0.803964
0.803964
0.803964
0.803965
0.803965
0.803966
0.803966
0.803966
0.803966
0.803967
0.803967
0.803968
0.803968
0.803968
0.803969
0.80397
0.80397
0.80397
0.803971
0.803971
0.803972
0.803972
0.803972
0.803973
0.803973
0.803974
0.803974
0.803974
0.803975
0.803976
0.803976
0.803977
0.803977
0.803977
0.803978
0.803979
0.803979
0.803979
0.80398
0.80398
0.803981
0.803982
0.803982
0.803982
0.803983
0.803984
0.803984
0.803984
0.803985
0.803986
0.803986
0.803987
0.803987
0.803988
0.803988
0.803989
0.80399
0.80399
0.80399
0.803991
0.803992
0.803993
0.803993
0.803993
0.803994
0.803995
0.803995
0.803995
0.803996
0.803997
0.803998
0.803998
0.803998
0.803999
0.804
0.804001
0.804002
0.804002
0.804002
0.804003
0.804004
0.804005
0.804005
0.804005
0.804006
0.804007
0.804008
0.804008
0.804009
0.80401
0.80401
0.804011
0.804011
0.804012
0.804013
0.804014
0.804015
0.804015
0.804016
0.804016
0.804017
0.804018
0.804018
0.804019
0.80402
0.804021
0.804022
0.804022
0.804023
0.804024
0.804025
0.804025
0.804025
0.804026
0.804027
0.804028
0.804029
0.804029
0.80403
0.804031
0.804032
0.804033
0.804033
0.804034
0.804035
0.804036
0.804037
0.804037
0.804038
0.804039
0.80404
0.804041
0.804041
0.804042
0.804043
0.804044
0.804045
0.804045
0.804046
0.804047
0.804048
0.804049
0.804049
0.80405
0.804051
0.804053
0.804054
0.804054
0.804055
0.804056
0.804057
0.804058
0.804058
0.804059
0.80406
0.804061
0.804062
0.804062
0.804064
0.804065
0.804066
0.804067
0.804067
0.804068
0.804069
0.80407
0.804072
0.804072
0.804073
0.804074
0.804075
0.804076
0.804076
0.804077
0.804079
0.80408
0.804081
0.804081
0.804082
0.804083
0.804085
0.804086
0.804086
0.804087
0.804088
0.80409
0.804091
0.804091
0.804092
0.804093
0.804095
0.804096
0.804096
0.804097
0.804098
0.8041
0.804101
0.804101
0.804102
0.804104
0.804105
0.804106
0.804106
0.804107
0.804109
0.80411
0.804111
0.804111
0.804113
0.804114
0.804115
0.804117
0.804117
0.804118
0.80412
0.804121
0.804122
0.804122
0.804124
0.804125
0.804126
0.804128
0.804128
0.804129
0.804131
0.804132
0.804133
0.804133
0.804135
0.804136
0.804138
0.804139
0.804139
0.804141
0.804142
0.804143
0.804145
0.804145
0.804146
0.804148
0.804149
0.804151
0.804151
0.804152
0.804154
0.804155
0.804157
0.804157
0.804158
0.80416
0.804161
0.804163
0.804163
0.804164
0.804166
0.804167
0.804169
0.804169
0.80417
0.804172
0.804174
0.804175
0.804175
0.804177
0.804178
0.80418
0.804181
0.804181
0.804183
0.804185
0.804186
0.804188
0.804188
0.804189
0.804191
0.804193
0.804194
0.804194
0.804196
0.804198
0.804199
0.804201
0.804201
0.804203
0.804204
0.804206
0.804208
0.804208
0.804209
0.804211
0.804213
0.804214
0.804214
0.804216
0.804218
0.804219
0.804221
0.804221
0.804223
0.804224
0.804226
0.804228
0.804228
0.80423
0.804231
0.804233
0.804235
0.804235
0.804237
0.804238
0.80424
0.804242
0.804242
0.804244
0.804246
0.804247
0.804249
0.804249
0.804251
0.804253
0.804255
0.804256
0.804256
0.804258
0.80426
0.804262
0.804264
0.804264
0.804266
0.804267
0.804269
0.804271
0.804271
0.804273
0.804275
0.804277
0.804279
0.804279
0.80428
0.804282
0.804284
0.804286
0.804286
0.804288
0.80429
0.804292
0.804294
0.804294
0.804296
0.804298
0.8043
0.804302
0.804302
0.804303
0.804305
0.804307
0.804309
0.804309
0.804311
0.804313
0.804315
0.804317
0.804317
0.804319
0.804321
0.804323
0.804325
0.804325
0.804327
0.804329
0.804331
0.804333
0.804333
0.804335
0.804337
0.804339
0.804341
0.804341
0.804343
0.804346
0.804348
0.80435
0.80435
0.804352
0.804354
0.804356
0.804358
0.804358
0.80436
0.804362
0.804364
0.804366
0.804366
0.804369
0.804371
0.804373
0.804375
0.804375
0.804377
0.804379
0.804381
0.804384
0.804384
0.804386
0.804388
0.80439
0.804392
0.804392
0.804394
0.804397
0.804399
0.804401
0.804401
0.804403
0.804405
0.804408
0.80441
0.80441
0.804412
0.804414
0.804416
0.804419
0.804419
0.804421
0.804423
0.804425
0.804428
0.804428
0.80443
0.804432
0.804435
0.804437
0.804437
0.804439
0.804441
0.804444
0.804446
0.804446
0.804448
0.804451
0.804453
0.804455
0.804455
0.804458
0.80446
0.804462
0.804465
0.804465
0.804467
0.804469
0.804472
0.804474
0.804474
0.804476
0.804479
0.804481
0.804484
0.804484
0.804486
0.804488
0.804491
0.804493
0.804493
0.804496
0.804498
0.8045
0.804503
0.804503
0.804505
0.804508
0.80451
0.804513
0.804513
0.804515
0.804517
0.80452
0.804522
0.804522
0.804525
0.804527
0.80453
0.804532
0.804532
0.804535
0.804537
0.80454
0.804542
0.804542
0.804545
0.804547
0.80455
0.804552
0.804552
0.804555
0.804558
0.80456
0.804563
0.804563
0.804565
0.804568
0.80457
0.804573
0.804573
0.804576
0.804578
0.804581
0.804583
0.804583
0.804586
0.804589
0.804591
0.804594
0.804594
0.804596
0.804599
0.804602
0.804604
0.804604
0.804607
0.80461
0.804612
0.804615
0.804615
0.804618
0.80462
0.804623
0.804626
0.804626
0.804628
0.804631
0.804634
0.804636
0.804636
0.804639
0.804642
0.804645
0.804647
0.804647
0.80465
0.804653
0.804655
0.804658
0.804658
0.804661
0.804664
0.804666
0.804669
0.804669
0.804672
0.804675
0.804678
0.80468
0.80468
0.804683
0.804686
0.804689
0.804692
0.804692
0.804694
0.804697
0.8047
0.804703
0.804703
0.804706
0.804708
0.804711
0.804714
0.804714
0.804717
0.80472
0.804723
0.804726
0.804726
0.804729
0.804731
0.804734
0.804737
0.804737
0.80474
0.804743
0.804746
0.804749
0.804749
0.804752
0.804755
0.804758
0.804761
0.804761
0.804764
0.804766
0.804769
0.804772
0.804772
0.804775
0.804778
0.804781
0.804784
0.804784
0.804787
0.80479
0.804793
0.804796
0.804796
0.804799
0.804802
0.804805
0.804808
0.804808
0.804811
0.804814
0.804817
0.80482
0.80482
0.804823
0.804826
0.80483
0.804833
0.804833
0.804836
0.804839
0.804842
0.804845
0.804845
0.804848
0.804851
0.804854
0.804857
0.804857
0.80486
0.804864
0.804867
0.80487
0.80487
0.804873
0.804876
0.804879
0.804882
0.804882
0.804885
0.804889
0.804892
0.804895
0.804895
0.804898
0.804901
0.804904
0.804908
0.804908
0.804911
0.804914
0.804917
0.804921
0.804921
0.804924
0.804927
0.80493
0.804933
0.804933
0.804937
0.80494
0.804943
0.804946
0.804946
0.80495
0.804953
0.804956
0.804959
0.804959
0.804963
0.804966
0.804969
0.804973
0.804973
0.804976
0.804979
0.804983
0.804986
0.804986
0.804989
0.804993
0.804996
0.804999
0.804999
0.805003
0.805006
0.805009
0.805013
0.805013
0.805016
0.805019
0.805023
0.805026
0.805026
0.805029
0.805033
0.805036
0.80504
0.80504
0.805043
0.805046
0.80505
0.805053
0.805053
0.805057
0.80506
0.805064
0.805067
0.805067
0.80507
0.805074
0.805077
0.805081
0.805081
0.805084
0.805088
0.805091
0.805095
0.805095
0.805098
0.805102
0.805105
0.805109
0.805109
0.805112
0.805116
0.805119
0.805123
0.805123
0.805126
0.80513
0.805133
0.805137
0.805137
0.805141
0.805144
0.805148
0.805151
0.805151
0.805155
0.805158
0.805162
0.805166
0.805166
0.805169
0.805173
0.805176
0.80518
0.80518
0.805184
0.805187
0.805191
0.805195
0.805195
0.805198
0.805202
0.805205
0.805209
0.805209
0.805213
0.805216
0.80522
0.805224
0.805224
0.805227
0.805231
0.805235
0.805239
0.805239
0.805242
0.805246
0.80525
0.805253
0.805253
0.805257
0.805261
0.805265
0.805268
0.805268
0.805272
0.805276
0.80528
0.805283
0.805283
0.805287
0.805291
0.805295
0.805298
0.805298
0.805302
0.805306
0.80531
0.805314
0.805314
0.805317
0.805321
0.805325
0.805329
0.805329
0.805333
0.805337
0.80534
0.805344
0.805344
0.805348
0.805352
0.805356
0.80536
0.80536
0.805364
0.805367
0.805371
0.805375
0.805375
0.805379
0.805383
0.805387
0.805391
0.805391
0.805395
0.805399
0.805403
0.805406
0.805406
0.80541
0.805414
0.805418
0.805422
0.805422
0.805426
0.80543
0.805434
0.805438
0.805438
0.805442
0.805446
0.80545
0.805454
0.805454
0.805458
0.805462
0.805466
0.80547
0.80547
0.805474
0.805478
0.805482
0.805486
0.805486
0.80549
0.805494
0.805498
0.805502
0.805502
0.805506
0.80551
0.805515
0.805519
0.805519
0.805523
0.805527
0.805531
0.805535
0.805535
0.805539
0.805543
0.805547
0.805551
0.805551
0.805556
0.80556
0.805564
0.805568
0.805568
0.805572
0.805576
0.80558
0.805585
0.805585
0.805589
0.805593
0.805597
0.805601
0.805601
0.805605
0.80561
0.805614
0.805618
0.805618
0.805622
0.805626
0.805631
0.805635
0.805635
0.805639
0.805643
0.805648
0.805652
0.805652
0.805656
0.80566
0.805665
0.805669
0.805669
0.805673
0.805678
0.805682
0.805686
0.805686
0.80569
0.805695
0.805699
0.805703
0.805703
0.805708
0.805712
0.805716
0.805721
0.805721
0.805725
0.805729
0.805734
0.805738
0.805738
0.805742
0.805747
0.805751
0.805755
0.805755
0.80576
0.805764
0.805769
0.805773
0.805773
0.805777
0.805782
0.805786
0.805791
0.805791
0.805795
0.805799
0.805804
0.805808
0.805808
0.805813
0.805817
0.805822
0.805826
0.805826
0.805831
0.805835
0.80584
0.805844
0.805844
0.805848
0.805853
0.805857
0.805862
0.805862
0.805866
0.805871
0.805876
0.80588
0.80588
0.805885
0.805889
0.805894
0.805898
0.805898
0.805903
0.805907
0.805912
0.805916
0.805916
0.805921
0.805926
0.80593
0.805935
0.805935
0.805939
0.805944
0.805949
0.805953
0.805953
0.805958
0.805962
0.805967
0.805972
0.805972
0.805976
0.805981
0.805985
0.80599
0.80599
0.805995
0.805999
0.806004
0.806009
0.806009
0.806013
0.806018
0.806023
0.806028
0.806028
0.806032
0.806037
0.806042
0.806046
0.806046
0.806051
0.806056
0.806061
0.806065
0.806065
0.80607
0.806075
0.806079
0.806084
0.806084
0.806089
0.806094
0.806099
0.806103
0.806103
0.806108
0.806113
0.806118
0.806122
0.806122
0.806127
0.806132
0.806137
0.806142
0.806142
0.806147
0.806151
0.806156
0.806161
0.806161
0.806166
0.806171
0.806176
0.80618
0.80618
0.806185
0.80619
0.806195
0.8062
0.8062
0.806205
0.80621
0.806215
0.80622
0.80622
0.806224
0.806229
0.806234
0.806239
0.806239
0.806244
0.806249
0.806254
0.806259
0.806259
0.806264
0.806269
0.806274
0.806279
0.806279
0.806284
0.806289
0.806294
0.806299
0.806299
0.806304
0.806309
0.806314
0.806319
0.806319
0.806324
0.806329
0.806334
0.806339
0.806339
0.806344
0.806349
0.806354
0.806359
0.806359
0.806364
0.806369
0.806374
0.806379
0.806379
0.806384
0.806389
0.806394
0.8064
0.8064
0.806405
0.80641
0.806415
0.80642
0.80642
0.806425
0.80643
0.806435
0.80644
0.80644
0.806446
0.806451
0.806456
0.806461
0.806461
0.806466
0.806471
0.806477
0.806482
0.806482
0.806487
0.806492
0.806497
0.806503
0.806503
0.806508
0.806513
0.806518
0.806523
0.806523
0.806529
0.806534
0.806539
0.806544
0.806544
0.80655
0.806555
0.80656
0.806565
0.806565
0.806571
0.806576
0.806581
0.806586
0.806586
0.806592
0.806597
0.806602
0.806608
0.806608
0.806613
0.806618
0.806624
0.806629
0.806629
0.806634
0.80664
0.806645
0.80665
0.80665
0.806656
0.806661
0.806666
0.806672
0.806672
0.806677
0.806682
0.806688
0.806693
0.806693
0.806699
0.806704
0.806709
0.806715
0.806715
0.80672
0.806726
0.806731
0.806736
0.806736
0.806742
0.806747
0.806753
0.806758
0.806758
0.806764
0.806769
0.806775
0.80678
0.80678
0.806786
0.806791
0.806797
0.806802
0.806802
0.806808
0.806813
0.806819
0.806824
0.806824
0.80683
0.806835
0.806841
0.806846
0.806846
0.806852
0.806857
0.806863
0.806868
0.806868
0.806874
0.80688
0.806885
0.806891
0.806891
0.806896
0.806902
0.806907
0.806913
0.806913
0.806919
0.806924
0.80693
0.806936
0.806936
0.806941
0.806947
0.806952
0.806958
0.806958
0.806964
0.806969
0.806975
0.806981
0.806981
0.806986
0.806992
0.806998
0.807003
0.807003
0.807009
0.807015
0.807021
0.807026
0.807026
0.807032
0.807038
0.807043
0.807049
0.807049
0.807055
0.807061
0.807066
0.807072
0.807072
0.807078
0.807084
0.807089
0.807095
0.807095
0.807101
0.807107
0.807112
0.807118
0.807118
0.807124
0.80713
0.807136
0.807141
0.807141
0.807147
0.807153
0.807159
0.807165
0.807165
0.807171
0.807176
0.807182
0.807188
0.807188
0.807194
0.8072
0.807206
0.807212
0.807212
0.807217
0.807223
0.807229
0.807235
0.807235
0.807241
0.807247
0.807253
0.807259
0.807259
0.807265
0.807271
0.807277
0.807283
0.807283
0.807288
0.807294
0.8073
0.807306
0.807306
0.807312
0.807318
0.807324
0.80733
0.80733
0.807336
0.807342
0.807348
0.807354
0.807354
0.80736
0.807366
0.807372
0.807378
0.807378
0.807384
0.80739
0.807396
0.807402
0.807402
0.807408
0.807415
0.807421
0.807427
0.807427
0.807433
0.807439
0.807445
0.807451
0.807451
0.807457
0.807463
0.807469
0.807475
0.807475
0.807481
0.807488
0.807494
0.8075
0.8075
0.807506
0.807512
0.807518
0.807524
0.807524
0.807531
0.807537
0.807543
0.807549
0.807549
0.807555
0.807561
0.807568
0.807574
0.807574
0.80758
0.807586
0.807592
0.807599
0.807599
0.807605
0.807611
0.807617
0.807624
0.807624
0.80763
0.807636
0.807642
0.807649
0.807649
0.807655
0.807661
0.807667
0.807674
0.807674
0.80768
0.807686
0.807692
0.807699
0.807699
0.807705
0.807711
0.807718
0.807724
0.807724
0.80773
0.807737
0.807743
0.807749
0.807749
0.807756
0.807762
0.807768
0.807775
0.807775
0.807781
0.807788
0.807794
0.8078
0.8078
0.807807
0.807813
0.807819
0.807826
0.807826
0.807832
0.807839
0.807845
0.807852
0.807852
0.807858
0.807864
0.807871
0.807877
0.807877
0.807884
0.80789
0.807897
0.807903
0.807903
0.80791
0.807916
0.807923
0.807929
0.807929
0.807936
0.807942
0.807949
0.807955
0.807955
0.807962
0.807968
0.807975
0.807981
0.807981
0.807988
0.807994
0.808001
0.808007
0.808007
0.808014
0.80802
0.808027
0.808034
0.808034
0.80804
0.808047
0.808053
0.80806
0.80806
0.808067
0.808073
0.80808
0.808086
0.808086
0.808093
0.8081
0.808106
0.808113
0.808113
0.80812
0.808126
0.808133
0.80814
0.80814
0.808146
0.808153
0.80816
0.808166
0.808166
0.808173
0.80818
0.808186
0.808193
0.808193
0.8082
0.808206
0.808213
0.80822
0.80822
0.808227
0.808233
0.80824
0.808247
0.808247
0.808254
0.80826
0.808267
0.808274
0.808274
0.808281
0.808287
0.808294
0.808301
0.808301
0.808308
0.808314
0.808321
0.808328
0.808328
0.808335
0.808342
0.808349
0.808355
0.808355
0.808362
0.808369
0.808376
0.808383
0.808383
0.80839
0.808396
0.808403
0.80841
0.80841
0.808417
0.808424
0.808431
0.808438
0.808438
0.808445
0.808452
0.808458
0.808465
0.808465
0.808472
0.808479
0.808486
0.808493
0.808493
0.8085
0.808507
0.808514
0.808521
0.808521
0.808528
0.808535
0.808542
0.808549
0.808549
0.808556
0.808563
0.80857
0.808577
0.808577
0.808584
0.808591
0.808598
0.808605
0.808605
0.808612
0.808619
0.808626
0.808633
0.808633
0.80864
0.808647
0.808654
0.808661
0.808661
0.808668
0.808675
0.808682
0.808689
0.808689
0.808696
0.808704
0.808711
0.808718
0.808718
0.808725
0.808732
0.808739
0.808746
0.808746
0.808753
0.80876
0.808768
0.808775
0.808775
0.808782
0.808789
0.808796
0.808803
0.808803
0.808811
0.808818
0.808825
0.808832
0.808832
0.808839
0.808846
0.808854
0.808861
0.808861
0.808868
0.808875
0.808883
0.80889
0.80889
0.808897
0.808904
0.808912
0.808919
0.808919
0.808926
0.808933
0.808941
0.808948
0.808948
0.808955
0.808962
0.80897
0.808977
0.808977
0.808984
0.808992
0.808999
0.809006
0.809006
0.809014
0.809021
0.809028
0.809036
0.809036
0.809043
0.80905
0.809058
0.809065
0.809065
0.809072
0.80908
0.809087
0.809094
0.809094
0.809102
0.809109
0.809117
0.809124
0.809124
0.809131
0.809139
0.809146
0.809154
0.809154
0.809161
0.809168
0.809176
0.809183
0.809183
0.809191
0.809198
0.809206
0.809213
0.809213
0.809221
0.809228
0.809236
0.809243
0.809243
0.809251
0.809258
0.809266
0.809273
0.809273
0.809281
0.809288
0.809296
0.809303
0.809303
0.809311
0.809318
0.809326
0.809333
0.809333
0.809341
0.809348
0.809356
0.809364
0.809364
0.809371
0.809379
0.809386
0.809394
0.809394
0.809401
0.809409
0.809417
0.809424
0.809424
0.809432
0.80944
0.809447
0.809455
0.809455
0.809462
0.80947
0.809478
0.809485
0.809485
0.809493
0.809501
0.809508
0.809516
0.809516
0.809524
0.809531
0.809539
0.809547
0.809547
0.809554
0.809562
0.80957
0.809578
0.809578
0.809585
0.809593
0.809601
0.809609
0.809609
0.809616
0.809624
0.809632
0.80964
0.80964
0.809647
0.809655
0.809663
0.809671
0.809671
0.809678
0.809686
0.809694
0.809702
0.809702
0.80971
0.809717
0.809725
0.809733
0.809733
0.809741
0.809749
0.809757
0.809764
0.809764
0.809772
0.80978
0.809788
0.809796
0.809796
0.809804
0.809812
0.809819
0.809827
0.809827
0.809835
0.809843
0.809851
0.809859
0.809859
0.809867
0.809875
0.809883
0.809891
0.809891
0.809899
0.809906
0.809914
0.809922
0.809922
0.80993
0.809938
0.809946
0.809954
0.809954
0.809962
0.80997
0.809978
0.809986
0.809986
0.809994
0.810002
0.81001
0.810018
0.810018
0.810026
0.810034
0.810042
0.81005
0.81005
0.810058
0.810066
0.810074
0.810082
0.810082
0.810091
0.810099
0.810107
0.810115
0.810115
0.810123
0.810131
0.810139
0.810147
0.810147
0.810155
0.810163
0.810171
0.81018
0.81018
0.810188
0.810196
0.810204
0.810212
0.810212
0.81022
0.810228
0.810237
0.810245
0.810245
0.810253
0.810261
0.810269
0.810277
0.810277
0.810286
0.810294
0.810302
0.81031
0.81031
0.810318
0.810327
0.810335
0.810343
0.810343
0.810351
0.81036
0.810368
0.810376
0.810376
0.810384
0.810393
0.810401
0.810409
0.810409
0.810417
0.810426
0.810434
0.810442
0.810442
0.81045
0.810459
0.810467
0.810475
0.810475
0.810484
0.810492
0.8105
0.810509
0.810509
0.810517
0.810525
0.810534
0.810542
0.810542
0.81055
0.810559
0.810567
0.810576
0.810576
0.810584
0.810592
0.810601
0.810609
0.810609
0.810617
0.810626
0.810634
0.810643
0.810643
0.810651
0.81066
0.810668
0.810676
0.810676
0.810685
0.810693
0.810702
0.81071
0.81071
0.810719
0.810727
0.810736
0.810744
0.810744
0.810753
0.810761
0.81077
0.810778
0.810778
0.810787
0.810795
0.810804
0.810812
0.810812
0.810821
0.810829
0.810838
0.810846
0.810846
0.810855
0.810863
0.810872
0.810881
0.810881
0.810889
0.810898
0.810906
0.810915
0.810915
0.810923
0.810932
0.810941
0.810949
0.810949
0.810958
0.810966
0.810975
0.810984
0.810984
0.810992
0.811001
0.81101
0.811018
0.811018
0.811027
0.811036
0.811044
0.811053
0.811053
0.811062
0.81107
0.811079
0.811088
0.811088
0.811096
0.811105
0.811114
0.811122
0.811122
0.811131
0.81114
0.811149
0.811157
0.811157
0.811166
0.811175
0.811184
0.811192
0.811192
0.811201
0.81121
0.811219
0.811227
0.811227
0.811236
0.811245
0.811254
0.811263
0.811263
0.811271
0.81128
0.811289
0.811298
0.811298
0.811307
0.811315
0.811324
0.811333
0.811333
0.811342
0.811351
0.81136
0.811369
0.811369
0.811377
0.811386
0.811395
0.811404
0.811404
0.811413
0.811422
0.811431
0.81144
0.81144
0.811449
0.811457
0.811466
0.811475
0.811475
0.811484
0.811493
0.811502
0.811511
0.811511
0.81152
0.811529
0.811538
0.811547
0.811547
0.811556
0.811565
0.811574
0.811583
0.811583
0.811592
0.811601
0.81161
0.811619
0.811619
0.811628
0.811637
0.811646
0.811655
0.811655
0.811664
0.811673
0.811682
0.811691
0.811691
0.8117
0.811709
0.811718
0.811727
0.811727
0.811736
0.811746
0.811755
0.811764
0.811764
0.811773
0.811782
0.811791
0.8118
0.8118
0.811809
0.811818
0.811828
0.811837
0.811837
0.811846
0.811855
0.811864
0.811873
0.811873
0.811882
0.811892
0.811901
0.81191
0.81191
0.811919
0.811928
0.811937
0.811947
0.811947
0.811956
0.811965
0.811974
0.811984
0.811984
0.811993
0.812002
0.812011
0.81202
0.81202
0.81203
0.812039
0.812048
0.812057
0.812057
0.812067
0.812076
0.812085
0.812095
0.812095
0.812104
0.812113
0.812122
0.812132
0.812132
0.812141
0.81215
0.81216
0.812169
0.812169
0.812178
0.812188
0.812197
0.812206
0.812206
0.812216
0.812225
0.812235
0.812244
0.812244
0.812253
0.812263
0.812272
0.812281
0.812281
0.812291
0.8123
0.81231
0.812319
0.812319
0.812328
0.812338
0.812347
0.812357
0.812357
0.812366
0.812376
0.812385
0.812395
0.812395
0.812404
0.812413
0.812423
0.812432
0.812432
0.812442
0.812451
0.812461
0.81247
0.81247
0.81248
0.812489
0.812499
0.812508
0.812508
0.812518
0.812527
0.812537
0.812547
0.812547
0.812556
0.812566
0.812575
0.812585
0.812585
0.812594
0.812604
0.812613
0.812623
0.812623
0.812633
0.812642
0.812652
0.812661
0.812661
0.812671
0.812681
0.81269
0.8127
0.8127
0.812709
0.812719
0.812729
0.812738
0.812738
0.812748
0.812758
0.812767
0.812777
0.812777
0.812787
0.812796
0.812806
0.812816
0.812816
0.812825
0.812835
0.812845
0.812855
0.812855
0.812864
0.812874
0.812884
0.812893
0.812893
0.812903
0.812913
0.812923
0.812932
0.812932
0.812942
0.812952
0.812962
0.812972
0.812972
0.812981
0.812991
0.813001
0.813011
0.813011
0.81302
0.81303
0.81304
0.81305
0.81305
0.81306
0.813069
0.813079
0.813089
0.813089
0.813099
0.813109
0.813119
0.813129
0.813129
0.813138
0.813148
0.813158
0.813168
0.813168
0.813178
0.813188
0.813198
0.813208
0.813208
0.813218
0.813227
0.813237
0.813247
0.813247
0.813257
0.813267
0.813277
0.813287
0.813287
0.813297
0.813307
0.813317
0.813327
0.813327
0.813337
0.813347
0.813357
0.813367
0.813367
0.813377
0.813387
0.813397
0.813407
0.813407
0.813417
0.813427
0.813437
0.813447
0.813447
0.813457
0.813467
0.813477
0.813487
0.813487
0.813497
0.813507
0.813517
0.813527
0.813527
0.813537
0.813547
0.813557
0.813568
0.813568
0.813578
0.813588
0.813598
0.813608
0.813608
0.813618
0.813628
0.813638
0.813648
0.813648
0.813659
0.813669
0.813679
0.813689
0.813689
0.813699
0.813709
0.81372
0.81373
0.81373
0.81374
0.81375
0.81376
0.81377
0.81377
0.813781
0.813791
0.813801
0.813811
0.813811
0.813822
0.813832
0.813842
0.813852
0.813852
0.813862
0.813873
0.813883
0.813893
0.813893
0.813904
0.813914
0.813924
0.813934
0.813934
0.813945
0.813955
0.813965
0.813976
0.813976
0.813986
0.813996
0.814006
0.814017
0.814017
0.814027
0.814037
0.814048
0.814058
0.814058
0.814068
0.814079
0.814089
0.8141
0.8141
0.81411
0.81412
0.814131
0.814141
0.814141
0.814152
0.814162
0.814172
0.814183
0.814183
0.814193
0.814204
0.814214
0.814224
0.814224
0.814235
0.814245
0.814256
0.814266
0.814266
0.814277
0.814287
0.814298
0.814308
0.814308
0.814319
0.814329
0.814339
0.81435
0.81435
0.81436
0.814371
0.814382
0.814392
0.814392
0.814403
0.814413
0.814424
0.814434
0.814434
0.814445
0.814455
0.814466
0.814476
0.814476
0.814487
0.814497
0.814508
0.814519
0.814519
0.814529
0.81454
0.81455
0.814561
0.814561
0.814572
0.814582
0.814593
0.814603
0.814603
0.814614
0.814625
0.814635
0.814646
0.814646
0.814657
0.814667
0.814678
0.814689
0.814689
0.814699
0.81471
0.814721
0.814731
0.814731
0.814742
0.814753
0.814763
0.814774
0.814774
0.814785
0.814796
0.814806
0.814817
0.814817
0.814828
0.814838
0.814849
0.81486
0.81486
0.814871
0.814881
0.814892
0.814903
0.814903
0.814914
0.814925
0.814935
0.814946
0.814946
0.814957
0.814968
0.814979
0.814989
0.814989
0.815
0.815011
0.815022
0.815033
0.815033
0.815043
0.815054
0.815065
0.815076
0.815076
0.815087
0.815098
0.815109
0.815119
0.815119
0.81513
0.815141
0.815152
0.815163
0.815163
0.815174
0.815185
0.815196
0.815207
0.815207
0.815218
0.815229
0.815239
0.81525
0.81525
0.815261
0.815272
0.815283
0.815294
0.815294
0.815305
0.815316
0.815327
0.815338
0.815338
0.815349
0.81536
0.815371
0.815382
0.815382
0.815393
0.815404
0.815415
0.815426
0.815426
0.815437
0.815448
0.815459
0.81547
0.81547
0.815481
0.815492
0.815504
0.815515
0.815515
0.815526
0.815537
0.815548
0.815559
0.815559
0.81557
0.815581
0.815592
0.815603
0.815603
0.815614
0.815626
0.815637
0.815648
0.815648
0.815659
0.81567
0.815681
0.815692
0.815692
0.815704
0.815715
0.815726
0.815737
0.815737
0.815748
0.815759
0.815771
0.815782
0.815782
0.815793
0.815804
0.815815
0.815827
0.815827
0.815838
0.815849
0.81586
0.815872
0.815872
0.815883
0.815894
0.815905
0.815917
0.815917
0.815928
0.815939
0.81595
0.815962
0.815962
0.815973
0.815984
0.815996
0.816007
0.816007
0.816018
0.816029
0.816041
0.816052
0.816052
0.816063
0.816075
0.816086
0.816097
0.816097
0.816109
0.81612
0.816131
0.816143
0.816143
0.816154
0.816166
0.816177
0.816188
0.816188
0.8162
0.816211
0.816223
0.816234
0.816234
0.816245
0.816257
0.816268
0.81628
0.81628
0.816291
0.816303
0.816314
0.816325
0.816325
0.816337
0.816348
0.81636
0.816371
0.816371
0.816383
0.816394
0.816406
0.816417
0.816417
0.816429
0.81644
0.816452
0.816463
0.816463
0.816475
0.816486
0.816498
0.816509
0.816509
0.816521
0.816532
0.816544
0.816556
0.816556
0.816567
0.816579
0.81659
0.816602
0.816602
0.816613
0.816625
0.816637
0.816648
0.816648
0.81666
0.816671
0.816683
0.816695
0.816695
0.816706
0.816718
0.816729
0.816741
0.816741
0.816753
0.816764
0.816776
0.816788
0.816788
0.816799
0.816811
0.816823
0.816834
0.816834
0.816846
0.816858
0.81687
0.816881
0.816881
0.816893
0.816905
0.816916
0.816928
0.816928
0.81694
0.816952
0.816963
0.816975
0.816975
0.816987
0.816999
0.81701
0.817022
0.817022
0.817034
0.817046
0.817057
0.817069
0.817069
0.817081
0.817093
0.817105
0.817116
0.817116
0.817128
0.81714
0.817152
0.817164
0.817164
0.817176
0.817187
0.817199
0.817211
0.817211
0.817223
0.817235
0.817247
0.817259
0.817259
0.817271
0.817282
0.817294
0.817306
0.817306
0.817318
0.81733
0.817342
0.817354
0.817354
0.817366
0.817378
0.81739
0.817402
0.817402
0.817414
0.817425
0.817437
0.817449
0.817449
0.817461
0.817473
0.817485
0.817497
0.817497
0.817509
0.817521
0.817533
0.817545
0.817545
0.817557
0.817569
0.817581
0.817593
0.817593
0.817605
0.817617
0.817629
0.817641
0.817641
0.817654
0.817666
0.817678
0.81769
0.81769
0.817702
0.817714
0.817726
0.817738
0.817738
0.81775
0.817762
0.817774
0.817786
0.817786
0.817799
0.817811
0.817823
0.817835
0.817835
0.817847
0.817859
0.817871
0.817883
0.817883
0.817896
0.817908
0.81792
0.817932
0.817932
0.817944
0.817956
0.817969
0.817981
0.817981
0.817993
0.818005
0.818018
0.81803
0.81803
0.818042
0.818054
0.818066
0.818079
0.818079
0.818091
0.818103
0.818115
0.818128
0.818128
0.81814
0.818152
0.818164
0.818177
0.818177
0.818189
0.818201
0.818214
0.818226
0.818226
0.818238
0.818251
0.818263
0.818275
0.818275
0.818287
0.8183
0.818312
0.818324
0.818324
0.818337
0.818349
0.818362
0.818374
0.818374
0.818386
0.818399
0.818411
0.818423
0.818423
0.818436
0.818448
0.818461
0.818473
0.818473
0.818485
0.818498
0.81851
0.818523
0.818523
0.818535
0.818548
0.81856
0.818572
0.818572
0.818585
0.818597
0.81861
0.818622
0.818622
0.818635
0.818647
0.81866
0.818672
0.818672
0.818685
0.818697
0.81871
0.818722
0.818722
0.818735
0.818747
0.81876
0.818772
0.818772
0.818785
0.818797
0.81881
0.818823
0.818823
0.818835
0.818848
0.81886
0.818873
0.818873
0.818885
0.818898
0.818911
0.818923
0.818923
0.818936
0.818948
0.818961
0.818974
0.818974
0.818986
0.818999
0.819012
0.819024
0.819024
0.819037
0.81905
0.819062
0.819075
0.819075
0.819088
0.8191
0.819113
0.819126
0.819126
0.819138
0.819151
0.819164
0.819176
0.819176
0.819189
0.819202
0.819215
0.819227
0.819227
0.81924
0.819253
0.819265
0.819278
0.819278
0.819291
0.819304
0.819316
0.819329
0.819329
0.819342
0.819355
0.819368
0.81938
0.81938
0.819393
0.819406
0.819419
0.819432
0.819432
0.819444
0.819457
0.81947
0.819483
0.819483
0.819496
0.819509
0.819521
0.819534
0.819534
0.819547
0.81956
0.819573
0.819586
0.819586
0.819599
0.819612
0.819624
0.819637
0.819637
0.81965
0.819663
0.819676
0.819689
0.819689
0.819702
0.819715
0.819728
0.819741
0.819741
0.819754
0.819767
0.81978
0.819792
0.819792
0.819805
0.819818
0.819831
0.819844
0.819844
0.819857
0.81987
0.819883
0.819896
0.819896
0.819909
0.819922
0.819935
0.819948
0.819948
0.819961
0.819975
0.819988
0.820001
0.820001
0.820014
0.820027
0.82004
0.820053
0.820053
0.820066
0.820079
0.820092
0.820105
0.820105
0.820118
0.820131
0.820144
0.820158
0.820158
0.820171
0.820184
0.820197
0.82021
0.82021
0.820223
0.820236
0.82025
0.820263
0.820263
0.820276
0.820289
0.820302
0.820315
0.820315
0.820329
0.820342
0.820355
0.820368
0.820368
0.820381
0.820394
0.820408
0.820421
0.820421
0.820434
0.820447
0.820461
0.820474
0.820474
0.820487
0.8205
0.820514
0.820527
0.820527
0.82054
0.820553
0.820567
0.82058
0.82058
0.820593
0.820607
0.82062
0.820633
0.820633
0.820646
0.82066
0.820673
0.820686
0.820686
0.8207
0.820713
0.820726
0.82074
0.82074
0.820753
0.820766
0.82078
0.820793
0.820793
0.820807
0.82082
0.820833
0.820847
0.820847
0.82086
0.820874
0.820887
0.8209
0.8209
0.820914
0.820927
0.820941
0.820954
0.820954
0.820967
0.820981
0.820994
0.821008
0.821008
0.821021
0.821035
0.821048
0.821062
0.821062
0.821075
0.821089
0.821102
0.821116
0.821116
0.821129
0.821143
0.821156
0.82117
0.82117
0.821183
0.821197
0.82121
0.821224
0.821224
0.821237
0.821251
0.821264
0.821278
0.821278
0.821292
0.821305
0.821319
0.821332
0.821332
0.821346
0.821359
0.821373
0.821387
0.821387
0.8214
0.821414
0.821427
0.821441
0.821441
0.821455
0.821468
0.821482
0.821496
0.821496
0.821509
0.821523
0.821537
0.82155
0.82155
0.821564
0.821578
0.821591
0.821605
0.821605
0.821619
0.821632
0.821646
0.82166
0.82166
0.821673
0.821687
0.821701
0.821715
0.821715
0.821728
0.821742
0.821756
0.82177
0.82177
0.821783
0.821797
0.821811
0.821825
0.821825
0.821838
0.821852
0.821866
0.82188
0.82188
0.821894
0.821907
0.821921
0.821935
0.821935
0.821949
0.821963
0.821977
0.82199
0.82199
0.822004
0.822018
0.822032
0.822046
0.822046
0.82206
0.822074
0.822087
0.822101
0.822101
0.822115
0.822129
0.822143
0.822157
0.822157
0.822171
0.822185
0.822199
0.822212
0.822212
0.822226
0.82224
0.822254
0.822268
0.822268
0.822282
0.822296
0.82231
0.822324
0.822324
0.822338
0.822352
0.822366
0.82238
0.82238
0.822394
0.822408
0.822422
0.822436
0.822436
0.82245
0.822464
0.822478
0.822492
0.822492
0.822506
0.82252
0.822534
0.822548
0.822548
0.822562
0.822576
0.82259
0.822604
0.822604
0.822619
0.822633
0.822647
0.822661
0.822661
0.822675
0.822689
0.822703
0.822717
0.822717
0.822731
0.822745
0.82276
0.822774
0.822774
0.822788
0.822802
0.822816
0.82283
0.82283
0.822845
0.822859
0.822873
0.822887
0.822887
0.822901