<?xml version="1.0"?>
<VTKFile type="UnstructuredGrid" version="0.1" byte_order="LittleEndian">
<UnstructuredGrid>
<Piece NumberOfPoints="5000" NumberOfCells="4000">
<PointData Scalars="Reaction 0">
<DataArray type="Float32" Name="Reaction 0" format="ascii">
0.751553
0.751553
0.751554
0.751554
0.751554
0.751554
0.751554
0.751554
0.751554
0.751554
0.751554
0.751554
0.751554
0.751554
0.751554
0.751554
0.751554
0.751554
0.751554
0.751554
0.751554
0.751554
0.751554
0.751555
0.751555
0.751555
0.751555
0.751555
0.751555
0.751555
0.751555
0.751555
0.751556
0.751556
0.751556
0.751556
0.751556
0.751556
0.751556
0.751557
0.751557
0.751557
0.751557
0.751557
0.751557
0.751557
0.751558
0.751558
0.751558
0.751558
0.751558
0.751559
0.751559
0.751559
0.751559
0.751559
0.75156
0.75156
0.75156
0.75156
0.75156
0.751561
0.751561
0.751561
0.751562
0.751562
0.751562
0.751562
0.751563
0.751563
0.751563
0.751563
0.751564
0.751564
0.751564
0.751564
0.751565
0.751565
0.751565
0.751566
0.751566
0.751566
0.751567
0.751567
0.751567
0.751567
0.751568
0.751568
0.751569
0.751569
0.751569
0.75157
0.75157
0.75157
0.751571
0.751571
0.751571
0.751572
0.751572
0.751573
0.751573
0.751573
0.751574
0.751574
0.751575
0.751575
0.751575
0.751576
0.751576
0.751577
0.751577
0.751577
0.751578
0.751578
0.751579
0.751579
0.75158
0.75158
0.751581
0.751581
0.751581
0.751582
0.751582
0.751583
0.751584
0.751584
0.751584
0.751585
0.751585
0.751586
0.751586
0.751587
0.751587
0.751588
0.751589
0.751589
0.751589
0.75159
0.751591
0.751591
0.751591
0.751592
0.751593
0.751593
0.751594
0.751594
0.751595
0.751595
0.751596
0.751597
0.751597
0.751598
0.751598
0.751599
0.7516
0.7516
0.7516
0.751601
0.751602
0.751603
0.751603
0.751604
0.751604
0.751605
0.751606
0.751606
0.751607
0.751607
0.751608
0.751609
0.751609
0.75161
0.751611
0.751612
0.751612
0.751612
0.751613
0.751614
0.751615
0.751616
0.751616
0.751617
0.751618
0.751618
0.751619
0.751619
0.75162
0.751621
0.751622
0.751623
0.751623
0.751624
0.751625
0.751626
0.751627
0.751627
0.751628
0.751629
0.75163
0.75163
0.75163
0.751631
0.751632
0.751633
0.751634
0.751634
0.751635
0.751636
0.751637
0.751638
0.751638
0.751639
0.75164
0.751641
0.751642
0.751642
0.751644
0.751645
0.751646
0.751647
0.751647
0.751648
0.751649
0.75165
0.751651
0.751651
0.751652
0.751653
0.751654
0.751655
0.751655
0.751656
0.751658
0.751659
0.75166
0.75166
0.751661
0.751662
0.751663
0.751664
0.751664
0.751666
0.751667
0.751668
0.751669
0.751669
0.75167
0.751671
0.751673
0.751674
0.751674
0.751675
0.751676
0.751677
0.751679
0.751679
0.75168
0.751681
0.751682
0.751684
0.751684
0.751685
0.751686
0.751687
0.751689
0.751689
0.75169
0.751691
0.751693
0.751694
0.751694
0.751695
0.751696
0.751698
0.751699
0.751699
0.7517
0.751702
0.751703
0.751704
0.751704
0.751706
0.751707
0.751708
0.75171
0.75171
0.751711
0.751713
0.751714
0.751715
0.751715
0.751717
0.751718
0.75172
0.751721
0.751721
0.751722
0.751724
0.751725
0.751727
0.751727
0.751728
0.75173
0.751731
0.751733
0.751733
0.751734
0.751736
0.751737
0.751738
0.751738
0.75174
0.751741
0.751743
0.751744
0.751744
0.751746
0.751748
0.751749
0.751751
0.751751
0.751752
0.751754
0.751755
0.751757
0.751757
0.751758
0.75176
0.751762
0.751763
0.751763
0.751765
0.751766
0.751768
0.75177
0.75177
0.751771
0.751773
0.751774
0.751776
0.751776
0.751778
0.751779
0.751781
0.751783
0.751783
0.751784
0.751786
0.751788
0.751789
0.751789
0.751791
0.751793
0.751794
0.751796
0.751796
0.751798
0.7518
0.751801
0.751803
0.751803
0.751805
0.751806
0.751808
0.75181
0.75181
0.751812
0.751813
0.751815
0.751817
0.751817
0.751819
0.751821
0.751822
0.751824
0.751824
0.751826
0.751828
0.75183
0.751831
0.751831
0.751833
0.751835
0.751837
0.751839
0.751839
0.751841
0.751843
0.751844
0.751846
0.751846
0.751848
0.75185
0.751852
0.751854
0.751854
0.751856
0.751858
0.75186
0.751862
0.751862
0.751863
0.751865
0.751867
0.751869
0.751869
0.751871
0.751873
0.751875
0.751877
0.751877
0.751879
0.751881
0.751883
0.751885
0.751885
0.751887
0.751889
0.751891
0.751893
0.751893
0.751895
0.751897
0.751899
0.751901
0.751901
0.751903
0.751905
0.751907
0.751909
0.751909
0.751912
0.751914
0.751916
0.751918
0.751918
0.75192
0.751922
0.751924
0.751926
0.751926
0.751928
0.75193
0.751933
0.751935
0.751935
0.751937
0.751939
0.751941
0.751943
0.751943
0.751946
0.751948
0.75195
0.751952
0.751952
0.751954
0.751956
0.751959
0.751961
0.751961
0.751963
0.751965
0.751968
0.75197
0.75197
0.751972
0.751974
0.751977
0.751979
0.751979
0.751981
0.751983
0.751986
0.751988
0.751988
0.75199
0.751992
0.751995
0.751997
0.751997
0.751999
0.752002
0.752004
0.752006
0.752006
0.752009
0.752011
0.752013
0.752016
0.752016
0.752018
0.75202
0.752023
0.752025
0.752025
0.752028
0.75203
0.752032
0.752035
0.752035
0.752037
0.75204
0.752042
0.752045
0.752045
0.752047
0.752049
0.752052
0.752054
0.752054
0.752057
0.752059
0.752062
0.752064
0.752064
0.752067
0.752069
0.752072
0.752074
0.752074
0.752077
0.752079
0.752082
0.752084
0.752084
0.752087
0.752089
0.752092
0.752094
0.752094
0.752097
0.7521
0.752102
0.752105
0.752105
0.752107
0.75211
0.752112
0.752115
0.752115
0.752118
0.75212
0.752123
0.752125
0.752125
0.752128
0.752131
0.752133
0.752136
0.752136
0.752139
0.752141
0.752144
0.752147
0.752147
0.752149
0.752152
0.752155
0.752157
0.752157
0.75216
0.752163
0.752166
0.752168
0.752168
0.752171
0.752174
0.752176
0.752179
0.752179
0.752182
0.752185
0.752187
0.75219
0.75219
0.752193
0.752196
0.752199
0.752201
0.752201
0.752204
0.752207
0.75221
0.752213
0.752213
0.752215
0.752218
0.752221
0.752224
0.752224
0.752227
0.75223
0.752232
0.752235
0.752235
0.752238
0.752241
0.752244
0.752247
0.752247
0.75225
0.752253
0.752255
0.752258
0.752258
0.752261
0.752264
0.752267
0.75227
0.75227
0.752273
0.752276
0.752279
0.752282
0.752282
0.752285
0.752288
0.752291
0.752294
0.752294
0.752297
0.7523
0.752303
0.752306
0.752306
0.752309
0.752312
0.752315
0.752318
0.752318
0.752321
0.752324
0.752327
0.75233
0.75233
0.752333
0.752336
0.752339
0.752342
0.752342
0.752345
0.752349
0.752352
0.752355
0.752355
0.752358
0.752361
0.752364
0.752367
0.752367
0.75237
0.752374
0.752377
0.75238
0.75238
0.752383
0.752386
0.752389
0.752392
0.752392
0.752396
0.752399
0.752402
0.752405
0.752405
0.752408
0.752412
0.752415
0.752418
0.752418
0.752421
0.752425
0.752428
0.752431
0.752431
0.752434
0.752438
0.752441
0.752444
0.752444
0.752447
0.752451
0.752454
0.752457
0.752457
0.752461
0.752464
0.752467
0.752471
0.752471
0.752474
0.752477
0.752481
0.752484
0.752484
0.752487
0.752491
0.752494
0.752497
0.752497
0.752501
0.752504
0.752508
0.752511
0.752511
0.752514
0.752518
0.752521
0.752525
0.752525
0.752528
0.752531
0.752535
0.752538
0.752538
0.752542
0.752545
0.752549
0.752552
0.752552
0.752556
0.752559
0.752563
0.752566
0.752566
0.75257
0.752573
0.752577
0.75258
0.75258
0.752584
0.752587
0.752591
0.752594
0.752594
0.752598
0.752601
0.752605
0.752608
0.752608
0.752612
0.752616
0.752619
0.752623
0.752623
0.752626
0.75263
0.752634
0.752637
0.752637
0.752641
0.752644
0.752648
0.752652
0.752652
0.752655
0.752659
0.752663
0.752666
0.752666
0.75267
0.752674
0.752677
0.752681
0.752681
0.752685
0.752688
0.752692
0.752696
0.752696
0.752699
0.752703
0.752707
0.752711
0.752711
0.752714
0.752718
0.752722
0.752726
0.752726
0.752729
0.752733
0.752737
0.752741
0.752741
0.752745
0.752748
0.752752
0.752756
0.752756
0.75276
0.752764
0.752767
0.752771
0.752771
0.752775
0.752779
0.752783
0.752787
0.752787
0.75279
0.752794
0.752798
0.752802
0.752802
0.752806
0.75281
0.752814
0.752818
0.752818
0.752822
0.752825
0.752829
0.752833
0.752833
0.752837
0.752841
0.752845
0.752849
0.752849
0.752853
0.752857
0.752861
0.752865
0.752865
0.752869
0.752873
0.752877
0.752881
0.752881
0.752885
0.752889
0.752893
0.752897
0.752897
0.752901
0.752905
0.752909
0.752913
0.752913
0.752917
0.752921
0.752925
0.752929
0.752929
0.752934
0.752938
0.752942
0.752946
0.752946
0.75295
0.752954
0.752958
0.752962
0.752962
0.752966
0.75297
0.752975
0.752979
0.752979
0.752983
0.752987
0.752991
0.752995
0.752995
0.753
0.753004
0.753008
0.753012
0.753012
0.753016
0.753021
0.753025
0.753029
0.753029
0.753033
0.753037
0.753042
0.753046
0.753046
0.75305
0.753054
0.753059
0.753063
0.753063
0.753067
0.753071
0.753076
0.75308
0.75308
0.753084
0.753089
0.753093
0.753097
0.753097
0.753102
0.753106
0.75311
0.753115
0.753115
0.753119
0.753123
0.753128
0.753132
0.753132
0.753136
0.753141
0.753145
0.75315
0.75315
0.753154
0.753158
0.753163
0.753167
0.753167
0.753172
0.753176
0.75318
0.753185
0.753185
0.753189
0.753194
0.753198
0.753203
0.753203
0.753207
0.753212
0.753216
0.753221
0.753221
0.753225
0.75323
0.753234
0.753239
0.753239
0.753243
0.753248
0.753252
0.753257
0.753257
0.753261
0.753266
0.75327
0.753275
0.753275
0.753279
0.753284
0.753289
0.753293
0.753293
0.753298
0.753302
0.753307
0.753312
0.753312
0.753316
0.753321
0.753325
0.75333
0.75333
0.753335
0.753339
0.753344
0.753349
0.753349
0.753353
0.753358
0.753363
0.753367
0.753367
0.753372
0.753377
0.753381
0.753386
0.753386
0.753391
0.753396
0.7534
0.753405
0.753405
0.75341
0.753414
0.753419
0.753424
0.753424
0.753429
0.753433
0.753438
0.753443
0.753443
0.753448
0.753453
0.753457
0.753462
0.753462
0.753467
0.753472
0.753477
0.753481
0.753481
0.753486
0.753491
0.753496
0.753501
0.753501
0.753506
0.753511
0.753515
0.75352
0.75352
0.753525
0.75353
0.753535
0.75354
0.75354
0.753545
0.75355
0.753555
0.753559
0.753559
0.753564
0.753569
0.753574
0.753579
0.753579
0.753584
0.753589
0.753594
0.753599
0.753599
0.753604
0.753609
0.753614
0.753619
0.753619
0.753624
0.753629
0.753634
0.753639
0.753639
0.753644
0.753649
0.753654
0.753659
0.753659
0.753664
0.753669
0.753674
0.753679
0.753679
0.753684
0.75369
0.753695
0.7537
0.7537
0.753705
0.75371
0.753715
0.75372
0.75372
0.753725
0.75373
0.753736
0.753741
0.753741
0.753746
0.753751
0.753756
0.753761
0.753761
0.753767
0.753772
0.753777
0.753782
0.753782
0.753787
0.753792
0.753798
0.753803
0.753803
0.753808
0.753813
0.753819
0.753824
0.753824
0.753829
0.753834
0.75384
0.753845
0.753845
0.75385
0.753855
0.753861
0.753866
0.753866
0.753871
0.753877
0.753882
0.753887
0.753887
0.753892
0.753898
0.753903
0.753908
0.753908
0.753914
0.753919
0.753924
0.75393
0.75393
0.753935
0.753941
0.753946
0.753951
0.753951
0.753957
0.753962
0.753968
0.753973
0.753973
0.753978
0.753984
0.753989
0.753995
0.753995
0.754
0.754006
0.754011
0.754016
0.754016
0.754022
0.754027
0.754033
0.754038
0.754038
0.754044
0.754049
0.754055
0.75406
0.75406
0.754066
0.754071
0.754077
0.754082
0.754082
0.754088
0.754093
0.754099
0.754105
0.754105
0.75411
0.754116
0.754121
0.754127
0.754127
0.754132
0.754138
0.754144
0.754149
0.754149
0.754155
0.75416
0.754166
0.754172
0.754172
0.754177
0.754183
0.754189
0.754194
0.754194
0.7542
0.754206
0.754211
0.754217
0.754217
0.754223
0.754228
0.754234
0.75424
0.75424
0.754245
0.754251
0.754257
0.754263
0.754263
0.754268
0.754274
0.75428
0.754286
0.754286
0.754291
0.754297
0.754303
0.754309
0.754309
0.754314
0.75432
0.754326
0.754332
0.754332
0.754338
0.754343
0.754349
0.754355
0.754355
0.754361
0.754367
0.754373
0.754378
0.754378
0.754384
0.75439
0.754396
0.754402
0.754402
0.754408
0.754414
0.75442
0.754425
0.754425
0.754431
0.754437
0.754443
0.754449
0.754449
0.754455
0.754461
0.754467
0.754473
0.754473
0.754479
0.754485
0.754491
0.754497
0.754497
0.754503
0.754509
0.754515
0.754521
0.754521
0.754527
0.754533
0.754539
0.754545
0.754545
0.754551
0.754557
0.754563
0.754569
0.754569
0.754575
0.754581
0.754587
0.754593
0.754593
0.754599
0.754605
0.754611
0.754617
0.754617
0.754623
0.75463
0.754636
0.754642
0.754642
0.754648
0.754654
0.75466
0.754666
0.754666
0.754672
0.754679
0.754685
0.754691
0.754691
0.754697
0.754703
0.754709
0.754716
0.754716
0.754722
0.754728
0.754734
0.75474
0.75474
0.754747
0.754753
0.754759
0.754765
0.754765
0.754772
0.754778
0.754784
0.75479
0.75479
0.754797
0.754803
0.754809
0.754816
0.754816
0.754822
0.754828
0.754834
0.754841
0.754841
0.754847
0.754853
0.75486
0.754866
0.754866
0.754872
0.754879
0.754885
0.754891
0.754891
0.754898
0.754904
0.754911
0.754917
0.754917
0.754923
0.75493
0.754936
0.754943
0.754943
0.754949
0.754955
0.754962
0.754968
0.754968
0.754975
0.754981
0.754988
0.754994
0.754994
0.755001
0.755007
0.755013
0.75502
0.75502
0.755026
0.755033
0.755039
0.755046
0.755046
0.755053
0.755059
0.755066
0.755072
0.755072
0.755079
0.755085
0.755092
0.755098
0.755098
0.755105
0.755111
0.755118
0.755125
0.755125
0.755131
0.755138
0.755144
0.755151
0.755151
0.755158
0.755164
0.755171
0.755177
0.755177
0.755184
0.755191
0.755197
0.755204
0.755204
0.755211
0.755217
0.755224
0.755231
0.755231
0.755237
0.755244
0.755251
0.755257
0.755257
0.755264
0.755271
0.755278
0.755284
0.755284
0.755291
0.755298
0.755305
0.755311
0.755311
0.755318
0.755325
0.755332
0.755338
0.755338
0.755345
0.755352
0.755359
0.755366
0.755366
0.755372
0.755379
0.755386
0.755393
0.755393
0.7554
0.755407
0.755413
0.75542
0.75542
0.755427
0.755434
0.755441
0.755448
0.755448
0.755455
0.755461
0.755468
0.755475
0.755475
0.755482
0.755489
0.755496
0.755503
0.755503
0.75551
0.755517
0.755524
0.755531
0.755531
0.755538
0.755545
0.755552
0.755559
0.755559
0.755566
0.755573
0.75558
0.755587
0.755587
0.755594
0.755601
0.755608
0.755615
0.755615
0.755622
0.755629
0.755636
0.755643
0.755643
0.75565
0.755657
0.755664
0.755671
0.755671
0.755678
0.755685
0.755692
0.755699
0.755699
0.755706
0.755714
0.755721
0.755728
0.755728
0.755735
0.755742
0.755749
0.755756
0.755756
0.755764
0.755771
0.755778
0.755785
0.755785
0.755792
0.755799
0.755807
0.755814
0.755814
0.755821
0.755828
0.755835
0.755843
0.755843
0.75585
0.755857
0.755864
0.755871
0.755871
0.755879
0.755886
0.755893
0.755901
0.755901
0.755908
0.755915
0.755922
0.75593
0.75593
0.755937
0.755944
0.755952
0.755959
0.755959
0.755966
0.755974
0.755981
0.755988
0.755988
0.755996
0.756003
0.75601
0.756018
0.756018
0.756025
0.756032
0.75604
0.756047
0.756047
0.756055
0.756062
0.756069
0.756077
0.756077
0.756084
0.756092
0.756099
0.756107
0.756107
0.756114
0.756121
0.756129
0.756136
0.756136
0.756144
0.756151
0.756159
0.756166
0.756166
0.756174
0.756181
0.756189
0.756196
0.756196
0.756204
0.756211
0.756219
0.756227
0.756227
0.756234
0.756242
0.756249
0.756257
0.756257
0.756264
0.756272
0.756279
0.756287
0.756287
0.756295
0.756302
0.75631
0.756317
0.756317
0.756325
0.756333
0.75634
0.756348
0.756348
0.756356
0.756363
0.756371
0.756379
0.756379
0.756386
0.756394
0.756402
0.756409
0.756409
0.756417
0.756425
0.756432
0.75644
0.75644
0.756448
0.756456
0.756463
0.756471
0.756471
0.756479
0.756487
0.756494
0.756502
0.756502
0.75651
0.756518
0.756525
0.756533
0.756533
0.756541
0.756549
0.756557
0.756564
0.756564
0.756572
0.75658
0.756588
0.756596
0.756596
0.756604
0.756611
0.756619
0.756627
0.756627
0.756635
0.756643
0.756651
0.756659
0.756659
0.756667
0.756674
0.756682
0.75669
0.75669
0.756698
0.756706
0.756714
0.756722
0.756722
0.75673
0.756738
0.756746
0.756754
0.756754
0.756762
0.75677
0.756778
0.756786
0.756786
0.756794
0.756802
0.75681
0.756818
0.756818
0.756826
0.756834
0.756842
0.75685
0.75685
0.756858
0.756866
0.756874
0.756882
0.756882
0.75689
0.756898
0.756906
0.756914
0.756914
0.756922
0.75693
0.756939
0.756947
0.756947
0.756955
0.756963
0.756971
0.756979
0.756979
0.756987
0.756995
0.757004
0.757012
0.757012
0.75702
0.757028
0.757036
0.757044
0.757044
0.757053
0.757061
0.757069
0.757077
0.757077
0.757085
0.757094
0.757102
0.75711
0.75711
0.757118
0.757127
0.757135
0.757143
0.757143
0.757151
0.75716
0.757168
0.757176
0.757176
0.757184
0.757193
0.757201
0.757209
0.757209
0.757218
0.757226
0.757234
0.757243
0.757243
0.757251
0.757259
0.757268
0.757276
0.757276
0.757284
0.757293
0.757301
0.75731
0.75731
0.757318
0.757326
0.757335
0.757343
0.757343
0.757352
0.75736
0.757368
0.757377
0.757377
0.757385
0.757394
0.757402
0.757411
0.757411
0.757419
0.757427
0.757436
0.757444
0.757444
0.757453
0.757461
0.75747
0.757478
0.757478
0.757487
0.757495
0.757504
0.757513
0.757513
0.757521
0.75753
0.757538
0.757547
0.757547
0.757555
0.757564
0.757572
0.757581
0.757581
0.75759
0.757598
0.757607
0.757615
0.757615
0.757624
0.757633
0.757641
0.75765
0.75765
0.757658
0.757667
0.757676
0.757684
0.757684
0.757693
0.757702
0.75771
0.757719
0.757719
0.757728
0.757736
0.757745
0.757754
0.757754
0.757763
0.757771
0.75778
0.757789
0.757789
0.757797
0.757806
0.757815
0.757824
0.757824
0.757832
0.757841
0.75785
0.757859
0.757859
0.757868
0.757876
0.757885
0.757894
0.757894
0.757903
0.757912
0.75792
0.757929
0.757929
0.757938
0.757947
0.757956
0.757965
0.757965
0.757973
0.757982
0.757991
0.758
0.758
0.758009
0.758018
0.758027
0.758036
0.758036
0.758045
0.758053
0.758062
0.758071
0.758071
0.75808
0.758089
0.758098
0.758107
0.758107
0.758116
0.758125
0.758134
0.758143
0.758143
0.758152
0.758161
0.75817
0.758179
0.758179
0.758188
0.758197
0.758206
0.758215
0.758215
0.758224
0.758233
0.758242
0.758251
0.758251
0.75826
0.758269
0.758278
0.758287
0.758287
0.758296
0.758306
0.758315
0.758324
0.758324
0.758333
0.758342
0.758351
0.75836
0.75836
0.758369
0.758378
0.758388
0.758397
0.758397
0.758406
0.758415
0.758424
0.758433
0.758433
0.758443
0.758452
0.758461
0.75847
0.75847
0.758479
0.758489
0.758498
0.758507
0.758507
0.758516
0.758526
0.758535
0.758544
0.758544
0.758553
0.758563
0.758572
0.758581
0.758581
0.75859
0.7586
0.758609
0.758618
0.758618
0.758628
0.758637
0.758646
0.758656
0.758656
0.758665
0.758674
0.758684
0.758693
0.758693
0.758702
0.758712
0.758721
0.75873
0.75873
0.75874
0.758749
0.758759
0.758768
0.758768
0.758777
0.758787
0.758796
0.758806
0.758806
0.758815
0.758824
0.758834
0.758843
0.758843
0.758853
0.758862
0.758872
0.758881
0.758881
0.758891
0.7589
0.75891
0.758919
0.758919
0.758929
0.758938
0.758948
0.758957
0.758957
0.758967
0.758976
0.758986
0.758995
0.758995
0.759005
0.759015
0.759024
0.759034
0.759034
0.759043
0.759053
0.759062
0.759072
0.759072
0.759082
0.759091
0.759101
0.759111
0.759111
0.75912
0.75913
0.759139
0.759149
0.759149
0.759159
0.759168
0.759178
0.759188
0.759188
0.759197
0.759207
0.759217
0.759226
0.759226
0.759236
0.759246
0.759256
0.759265
0.759265
0.759275
0.759285
0.759295
0.759304
0.759304
0.759314
0.759324
0.759334
0.759343
0.759343
0.759353
0.759363
0.759373
0.759383
0.759383
0.759392
0.759402
0.759412
0.759422
0.759422
0.759432
0.759441
0.759451
0.759461
0.759461
0.759471
0.759481
0.759491
0.759501
0.759501
0.75951
0.75952
0.75953
0.75954
0.75954
0.75955
0.75956
0.75957
0.75958
0.75958
0.75959
0.7596
0.75961
0.75962
0.75962
0.75963
0.75964
0.75965
0.759659
0.759659
0.759669
0.759679
0.759689
0.759699
0.759699
0.759709
0.759719
0.759729
0.759739
0.759739
0.75975
0.75976
0.75977
0.75978
0.75978
0.75979
0.7598
0.75981
0.75982
0.75982
0.75983
0.75984
0.75985
0.75986
0.75986
0.75987
0.759881
0.759891
0.759901
0.759901
0.759911
0.759921
0.759931
0.759941
0.759941
0.759951
0.759962
0.759972
0.759982
0.759982
0.759992
0.760002
0.760013
0.760023
0.760023
0.760033
0.760043
0.760053
0.760064
0.760064
0.760074
0.760084
0.760094
0.760105
0.760105
0.760115
0.760125
0.760135
0.760146
0.760146
0.760156
0.760166
0.760177
0.760187
0.760187
0.760197
0.760207
0.760218
0.760228
0.760228
0.760238
0.760249
0.760259
0.760269
0.760269
0.76028
0.76029
0.760301
0.760311
0.760311
0.760321
0.760332
0.760342
0.760352
0.760352
0.760363
0.760373
0.760384
0.760394
0.760394
0.760405
0.760415
0.760425
0.760436
0.760436
0.760446
0.760457
0.760467
0.760478
0.760478
0.760488
0.760499
0.760509
0.76052
0.76052
0.76053
0.760541
0.760551
0.760562
0.760562
0.760572
0.760583
0.760593
0.760604
0.760604
0.760615
0.760625
0.760636
0.760646
0.760646
0.760657
0.760667
0.760678
0.760689
0.760689
0.760699
0.76071
0.760721
0.760731
0.760731
0.760742
0.760752
0.760763
0.760774
0.760774
0.760784
0.760795
0.760806
0.760816
0.760816
0.760827
0.760838
0.760848
0.760859
0.760859
0.76087
0.760881
0.760891
0.760902
0.760902
0.760913
0.760924
0.760934
0.760945
0.760945
0.760956
0.760967
0.760977
0.760988
0.760988
0.760999
0.76101
0.761021
0.761031
0.761031
0.761042
0.761053
0.761064
0.761075
0.761075
0.761085
0.761096
0.761107
0.761118
0.761118
0.761129
0.76114
0.761151
0.761161
0.761161
0.761172
0.761183
0.761194
0.761205
0.761205
0.761216
0.761227
0.761238
0.761249
0.761249
0.76126
0.761271
0.761282
0.761293
0.761293
0.761303
0.761314
0.761325
0.761336
0.761336
0.761347
0.761358
0.761369
0.76138
0.76138
0.761391
0.761402
0.761413
0.761424
0.761424
0.761436
0.761447
0.761458
0.761469
0.761469
0.76148
0.761491
0.761502
0.761513
0.761513
0.761524
0.761535
0.761546
0.761557
0.761557
0.761568
0.76158
0.761591
0.761602
0.761602
0.761613
0.761624
0.761635
0.761646
0.761646
0.761658
0.761669
0.76168
0.761691
0.761691
0.761702
0.761714
0.761725
0.761736
0.761736
0.761747
0.761758
0.76177
0.761781
0.761781
0.761792
0.761803
0.761815
0.761826
0.761826
0.761837
0.761848
0.76186
0.761871
0.761871
0.761882
0.761894
0.761905
0.761916
0.761916
0.761927
0.761939
0.76195
0.761961
0.761961
0.761973
0.761984
0.761995
0.762007
0.762007
0.762018
0.76203
0.762041
0.762052
0.762052
0.762064
0.762075
0.762087
0.762098
0.762098
0.762109
0.762121
0.762132
0.762144
0.762144
0.762155
0.762167
0.762178
0.762189
0.762189
0.762201
0.762212
0.762224
0.762235
0.762235
0.762247
0.762258
0.76227
0.762281
0.762281
0.762293
0.762304
0.762316
0.762328
0.762328
0.762339
0.762351
0.762362
0.762374
0.762374
0.762385
0.762397
0.762408
0.76242
0.76242
0.762432
0.762443
0.762455
0.762466
0.762466
0.762478
0.76249
0.762501
0.762513
0.762513
0.762525
0.762536
0.762548
0.76256
0.76256
0.762571
0.762583
0.762595
0.762606
0.762606
0.762618
0.76263
0.762641
0.762653
0.762653
0.762665
0.762677
0.762688
0.7627
0.7627
0.762712
0.762724
0.762735
0.762747
0.762747
0.762759
0.762771
0.762782
0.762794
0.762794
0.762806
0.762818
0.76283
0.762842
0.762842
0.762853
0.762865
0.762877
0.762889
0.762889
0.762901
0.762913
0.762924
0.762936
0.762936
0.762948
0.76296
0.762972
0.762984
0.762984
0.762996
0.763008
0.76302
0.763031
0.763031
0.763043
0.763055
0.763067
0.763079
0.763079
0.763091
0.763103
0.763115
0.763127
0.763127
0.763139
0.763151
0.763163
0.763175
0.763175
0.763187
0.763199
0.763211
0.763223
0.763223
0.763235
0.763247
0.763259
0.763271
0.763271
0.763283
0.763295
0.763307
0.763319
0.763319
0.763332
0.763344
0.763356
0.763368
0.763368
0.76338
0.763392
0.763404
0.763416
0.763416
0.763428
0.76344
0.763453
0.763465
0.763465
0.763477
0.763489
0.763501
0.763513
0.763513
0.763526
0.763538
0.76355
0.763562
0.763562
0.763574
0.763587
0.763599
0.763611
0.763611
0.763623
0.763636
0.763648
0.76366
0.76366
0.763672
0.763685
0.763697
0.763709
0.763709
0.763721
0.763734
0.763746
0.763758
0.763758
0.763771
0.763783
0.763795
0.763808
0.763808
0.76382
0.763832
0.763845
0.763857
0.763857
0.763869
0.763882
0.763894
0.763906
0.763906
0.763919
0.763931
0.763944
0.763956
0.763956
0.763968
0.763981
0.763993
0.764006
0.764006
0.764018
0.764031
0.764043
0.764055
0.764055
0.764068
0.76408
0.764093
0.764105
0.764105
0.764118
0.76413
0.764143
0.764155
0.764155
0.764168
0.76418
0.764193
0.764205
0.764205
0.764218
0.76423
0.764243
0.764256
0.764256
0.764268
0.764281
0.764293
0.764306
0.764306
0.764318
0.764331
0.764344
0.764356
0.764356
0.764369
0.764382
0.764394
0.764407
0.764407
0.764419
0.764432
0.764445
0.764457
0.764457
0.76447
0.764483
0.764495
0.764508
0.764508
0.764521
0.764533
0.764546
0.764559
0.764559
0.764572
0.764584
0.764597
0.76461
0.76461
0.764623
0.764635
0.764648
0.764661
0.764661
0.764674
0.764686
0.764699
0.764712
0.764712
0.764725
0.764738
0.76475
0.764763
0.764763
0.764776
0.764789
0.764802
0.764814
0.764814
0.764827
0.76484
0.764853
0.764866
0.764866
0.764879
0.764892
0.764905
0.764917
0.764917
0.76493
0.764943
0.764956
0.764969
0.764969
0.764982
0.764995
0.765008
0.765021
0.765021
0.765034
0.765047
0.76506
0.765073
0.765073
0.765086
0.765099
0.765112
0.765125
0.765125
0.765138
0.765151
0.765164
0.765177
0.765177
0.76519
0.765203
0.765216
0.765229
0.765229
0.765242
0.765255
0.765268
0.765281
0.765281
0.765294
0.765307
0.76532
0.765333
0.765333
0.765346
0.76536
0.765373
0.765386
0.765386
0.765399
0.765412
0.765425
0.765438
0.765438
0.765451
0.765465
0.765478
0.765491
0.765491
0.765504
0.765517
0.765531
0.765544
0.765544
0.765557
0.76557
0.765583
0.765597
0.765597
0.76561
0.765623
0.765636
0.76565
0.76565
0.765663
0.765676
0.765689
0.765703
0.765703
0.765716
0.765729
0.765742
0.765756
0.765756
0.765769
0.765782
0.765796
0.765809
0.765809
0.765822
0.765836
0.765849
0.765862
0.765862
0.765876
0.765889
0.765903
0.765916
0.765916
0.765929
0.765943
0.765956
0.76597
0.76597
0.765983
0.765996
0.76601
0.766023
0.766023
0.766037
0.76605
0.766064
0.766077
0.766077
0.76609
0.766104
0.766117
0.766131
0.766131
0.766144
0.766158
0.766171
0.766185
0.766185
0.766198
0.766212
0.766225
0.766239
0.766239
0.766252
0.766266
0.76628
0.766293
0.766293
0.766307
0.76632
0.766334
0.766347
0.766347
0.766361
0.766375
0.766388
0.766402
0.766402
0.766416
0.766429
0.766443
0.766456
0.766456
0.76647
0.766484
0.766497
0.766511
0.766511
0.766525
0.766538
0.766552
0.766566
0.766566
0.766579
0.766593
0.766607
0.766621
0.766621
0.766634
0.766648
0.766662
0.766675
0.766675
0.766689
0.766703
0.766717
0.76673
0.76673
0.766744
0.766758
0.766772
0.766786
0.766786
0.766799
0.766813
0.766827
0.766841
0.766841
0.766855
0.766869
0.766882
0.766896
0.766896
0.76691
0.766924
0.766938
0.766952
0.766952
0.766966
0.766979
0.766993
0.767007
0.767007
0.767021
0.767035
0.767049
0.767063
0.767063
0.767077
0.767091
0.767105
0.767119
0.767119
0.767133
0.767147
0.76716
0.767174
0.767174
0.767188
0.767202
0.767216
0.76723
0.76723
0.767244
0.767258
0.767272
0.767286
0.767286
0.767301
0.767315
0.767329
0.767343
0.767343
0.767357
0.767371
0.767385
0.767399
0.767399
0.767413
0.767427
0.767441
0.767455
0.767455
0.767469
0.767484
0.767498
0.767512
0.767512
0.767526
0.76754
0.767554
0.767568
0.767568
0.767583
0.767597
0.767611
0.767625
0.767625
0.767639
0.767653
0.767668
0.767682
0.767682
0.767696
0.76771
0.767724
0.767739
0.767739
0.767753
0.767767
0.767781
0.767796
0.767796
0.76781
0.767824
0.767839
0.767853
0.767853
0.767867
0.767881
0.767896
0.76791
0.76791
0.767924
0.767939
0.767953
0.767967
0.767967
0.767982
0.767996
0.76801
0.768025
0.768025
0.768039
0.768054
0.768068
0.768082
0.768082
0.768097
0.768111
0.768125
0.76814
0.76814
0.768154
0.768169
0.768183
0.768198
0.768198
0.768212
0.768227
0.768241
0.768255
0.768255
0.76827
0.768284
0.768299
0.768313
0.768313
0.768328
0.768342
0.768357
0.768371
0.768371
0.768386
0.7684
0.768415
0.76843
0.76843
0.768444
0.768459
0.768473
0.768488
0.768488
0.768502
0.768517
0.768532
0.768546
0.768546
0.768561
0.768575
0.76859
0.768605
0.768605
0.768619
0.768634
0.768649
0.768663
0.768663
0.768678
0.768692
0.768707
0.768722
0.768722
0.768737
0.768751
0.768766
0.768781
0.768781
0.768795
0.76881
0.768825
0.768839
0.768839
0.768854
0.768869
0.768884
0.768898
0.768898
0.768913
0.768928
0.768943
0.768958
0.768958
0.768972
0.768987
0.769002
0.769017
0.769017
0.769032
0.769046
0.769061
0.769076
0.769076
0.769091
0.769106
0.769121
0.769135
0.769135
0.76915
0.769165
0.76918
0.769195
0.769195
0.76921
0.769225
0.76924
0.769255
0.769255
0.769269
0.769284
0.769299
0.769314
0.769314
0.769329
0.769344
0.769359
0.769374
0.769374
0.769389
0.769404
0.769419
0.769434
0.769434
0.769449
0.769464
0.769479
0.769494
0.769494
0.769509
0.769524
0.769539
0.769554
0.769554
0.769569
0.769584
0.769599
0.769614
0.769614
0.769629
0.769644
0.76966
0.769675
0.769675
0.76969
0.769705
0.76972
0.769735
0.769735
0.76975
0.769765
0.769781
0.769796
0.769796
0.769811
0.769826
0.769841
0.769856
0.769856
0.769871
0.769887
0.769902
0.769917
0.769917
0.769932
0.769948
0.769963
0.769978
0.769978
0.769993
0.770008
0.770024
0.770039
0.770039
0.770054
0.770069
0.770085
0.7701
0.7701
0.770115
0.770131
0.770146
0.770161
0.770161
0.770176
0.770192
0.770207
0.770222
0.770222
0.770238
0.770253
0.770268
0.770284
0.770284
0.770299
0.770315
0.77033
0.770345
0.770345
0.770361
0.770376
0.770391
0.770407
0.770407
0.770422
0.770438
0.770453
0.770469
0.770469
0.770484
0.770499
0.770515
0.77053
0.77053
0.770546
0.770561
0.770577
0.770592
0.770592
0.770608
0.770623
0.770639
0.770654
0.770654
0.77067
0.770685
0.770701
0.770716
0.770716
0.770732
0.770748
0.770763
0.770779
0.770779
0.770794
0.77081
0.770825
0.770841
0.770841
0.770857
0.770872
0.770888
0.770903
0.770903
0.770919
0.770935
0.77095
0.770966
0.770966
0.770982
0.770997
0.771013
0.771029
0.771029
0.771044
0.77106
0.771076
0.771091
0.771091
0.771107
0.771123
0.771139
0.771154
0.771154
0.77117
0.771186
0.771201
0.771217
0.771217
0.771233
0.771249
0.771265
0.77128
0.77128
0.771296
0.771312
0.771328
0.771343
0.771343
0.771359
0.771375
0.771391
0.771407
0.771407
0.771423
0.771438
0.771454
0.77147
0.77147
0.771486
0.771502
0.771518
0.771534
0.771534
0.771549
0.771565
0.771581
0.771597
0.771597
0.771613
0.771629
0.771645
0.771661
0.771661
0.771677
0.771693
0.771709
0.771725
0.771725
0.771741
0.771757
0.771773
0.771789
0.771789
0.771805
0.771821
0.771837
0.771853
0.771853
0.771869
0.771885
0.771901
0.771917
0.771917
0.771933
0.771949
0.771965
0.771981
0.771981
0.771997
0.772013
0.772029
0.772045
0.772045
0.772061
0.772078
0.772094
0.77211
0.77211
0.772126
0.772142
0.772158
0.772174
0.772174
0.77219
0.772207
0.772223
0.772239
0.772239
0.772255
0.772271
0.772288
0.772304
0.772304
0.77232
0.772336
0.772352
0.772369
0.772369
0.772385
0.772401
0.772417
0.772434
0.772434
0.77245
0.772466
0.772482
0.772499
0.772499
0.772515
0.772531
0.772548
0.772564
0.772564
0.77258
0.772596
0.772613
0.772629
0.772629
0.772645
0.772662
0.772678
0.772695
0.772695
0.772711
0.772727
0.772744
0.77276
0.77276
0.772776
0.772793
0.772809
0.772826
0.772826
0.772842
0.772858
0.772875
0.772891
0.772891
0.772908
0.772924
0.772941
0.772957
0.772957
0.772974
0.77299
0.773007
0.773023
0.773023
0.77304
0.773056
0.773073
0.773089
0.773089
0.773106
0.773122
0.773139
0.773155
0.773155
0.773172
0.773188
0.773205
0.773221
0.773221
0.773238
0.773255
0.773271
0.773288
0.773288
0.773304
0.773321
0.773338
0.773354
0.773354
0.773371
0.773388
0.773404
0.773421
0.773421
0.773438
0.773454
0.773471
0.773488