<?xml version="1.0"?>
<VTKFile type="UnstructuredGrid" version="0.1" byte_order="LittleEndian">
<UnstructuredGrid>
<Piece NumberOfPoints="5000" NumberOfCells="4000">
<PointData Scalars="Reaction 0">
<DataArray type="Float32" Name="Reaction 0" format="ascii">
0.404531
0.404531
0.404531
0.404531
0.404531
0.404531
0.404531
0.404531
0.404531
0.404532
0.404532
0.404532
0.404532
0.404532
0.404533
0.404533
0.404533
0.404533
0.404534
0.404534
0.404534
0.404535
0.404535
0.404536
0.404536
0.404536
0.404537
0.404538
0.404538
0.404539
0.404539
0.40454
0.40454
0.404541
0.404542
0.404542
0.404543
0.404543
0.404544
0.404545
0.404545
0.404546
0.404547
0.404548
0.404549
0.404549
0.40455
0.404551
0.404552
0.404553
0.404553
0.404555
0.404556
0.404557
0.404558
0.404558
0.404559
0.404561
0.404562
0.404563
0.404563
0.404565
0.404566
0.404568
0.404569
0.404569
0.404571
0.404572
0.404574
0.404575
0.404575
0.404577
0.404578
0.40458
0.404582
0.404582
0.404583
0.404585
0.404587
0.404589
0.404589
0.404591
0.404592
0.404594
0.404596
0.404596
0.404598
0.4046
0.404602
0.404604
0.404604
0.404606
0.404608
0.40461
0.404613
0.404613
0.404615
0.404617
0.404619
0.404621
0.404621
0.404624
0.404626
0.404628
0.404631
0.404631
0.404633
0.404636
0.404638
0.404641
0.404641
0.404643
0.404646
0.404648
0.404651
0.404651
0.404653
0.404656
0.404659
0.404661
0.404661
0.404664
0.404667
0.40467
0.404673
0.404673
0.404675
0.404678
0.404681
0.404684
0.404684
0.404687
0.40469
0.404693
0.404696
0.404696
0.404699
0.404702
0.404706
0.404709
0.404709
0.404712
0.404715
0.404718
0.404722
0.404722
0.404725
0.404728
0.404732
0.404735
0.404735
0.404738
0.404742
0.404745
0.404749
0.404749
0.404752
0.404756
0.40476
0.404763
0.404763
0.404767
0.40477
0.404774
0.404778
0.404778
0.404782
0.404785
0.404789
0.404793
0.404793
0.404797
0.404801
0.404805
0.404809
0.404809
0.404813
0.404817
0.404821
0.404825
0.404825
0.404829
0.404833
0.404837
0.404841
0.404841
0.404846
0.40485
0.404854
0.404859
0.404859
0.404863
0.404867
0.404872
0.404876
0.404876
0.40488
0.404885
0.404889
0.404894
0.404894
0.404898
0.404903
0.404908
0.404912
0.404912
0.404917
0.404922
0.404926
0.404931
0.404931
0.404936
0.404941
0.404946
0.40495
0.40495
0.404955
0.40496
0.404965
0.40497
0.40497
0.404975
0.40498
0.404985
0.40499
0.40499
0.404996
0.405001
0.405006
0.405011
0.405011
0.405016
0.405022
0.405027
0.405032
0.405032
0.405038
0.405043
0.405048
0.405054
0.405054
0.405059
0.405065
0.40507
0.405076
0.405076
0.405081
0.405087
0.405093
0.405098
0.405098
0.405104
0.40511
0.405115
0.405121
0.405121
0.405127
0.405133
0.405139
0.405145
0.405145
0.40515
0.405156
0.405162
0.405168
0.405168
0.405174
0.40518
0.405187
0.405193
0.405193
0.405199
0.405205
0.405211
0.405217
0.405217
0.405224
0.40523
0.405236
0.405243
0.405243
0.405249
0.405255
0.405262
0.405268
0.405268
0.405275
0.405281
0.405288
0.405294
0.405294
0.405301
0.405308
0.405314
0.405321
0.405321
0.405328
0.405334
0.405341
0.405348
0.405348
0.405355
0.405362
0.405369
0.405375
0.405375
0.405382
0.405389
0.405396
0.405403
0.405403
0.40541
0.405417
0.405425
0.405432
0.405432
0.405439
0.405446
0.405453
0.405461
0.405461
0.405468
0.405475
0.405482
0.40549
0.40549
0.405497
0.405505
0.405512
0.40552
0.40552
0.405527
0.405535
0.405542
0.40555
0.40555
0.405557
0.405565
0.405573
0.40558
0.40558
0.405588
0.405596
0.405604
0.405612
0.405612
0.405619
0.405627
0.405635
0.405643
0.405643
0.405651
0.405659
0.405667
0.405675
0.405675
0.405683
0.405691
0.405699
0.405708
0.405708
0.405716
0.405724
0.405732
0.40574
0.40574
0.405749
0.405757
0.405765
0.405774
0.405774
0.405782
0.405791
0.405799
0.405808
0.405808
0.405816
0.405825
0.405833
0.405842
0.405842
0.405851
0.405859
0.405868
0.405877
0.405877
0.405885
0.405894
0.405903
0.405912
0.405912
0.405921
0.40593
0.405939
0.405947
0.405947
0.405956
0.405965
0.405975
0.405984
0.405984
0.405993
0.406002
0.406011
0.40602
0.40602
0.406029
0.406039
0.406048
0.406057
0.406057
0.406066
0.406076
0.406085
0.406095
0.406095
0.406104
0.406113
0.406123
0.406132
0.406132
0.406142
0.406152
0.406161
0.406171
0.406171
0.406181
0.40619
0.4062
0.40621
0.40621
0.406219
0.406229
0.406239
0.406249
0.406249
0.406259
0.406269
0.406279
0.406289
0.406289
0.406299
0.406309
0.406319
0.406329
0.406329
0.406339
0.406349
0.406359
0.406369
0.406369
0.40638
0.40639
0.4064
0.406411
0.406411
0.406421
0.406431
0.406442
0.406452
0.406452
0.406463
0.406473
0.406484
0.406494
0.406494
0.406505
0.406515
0.406526
0.406537
0.406537
0.406547
0.406558
0.406569
0.406579
0.406579
0.40659
0.406601
0.406612
0.406623
0.406623
0.406634
0.406645
0.406656
0.406667
0.406667
0.406678
0.406689
0.4067
0.406711
0.406711
0.406722
0.406733
0.406744
0.406756
0.406756
0.406767
0.406778
0.406789
0.406801
0.406801
0.406812
0.406824
0.406835
0.406846
0.406846
0.406858
0.406869
0.406881
0.406892
0.406892
0.406904
0.406916
0.406927
0.406939
0.406939
0.406951
0.406962
0.406974
0.406986
0.406986
0.406998
0.40701
0.407022
0.407033
0.407033
0.407045
0.407057
0.407069
0.407081
0.407081
0.407093
0.407105
0.407118
0.40713
0.40713
0.407142
0.407154
0.407166
0.407178
0.407178
0.407191
0.407203
0.407215
0.407228
0.407228
0.40724
0.407253
0.407265
0.407277
0.407277
0.40729
0.407302
0.407315
0.407328
0.407328
0.40734
0.407353
0.407366
0.407378
0.407378
0.407391
0.407404
0.407416
0.407429
0.407429
0.407442
0.407455
0.407468
0.407481
0.407481
0.407494
0.407507
0.40752
0.407533
0.407533
0.407546
0.407559
0.407572
0.407585
0.407585
0.407598
0.407612
0.407625
0.407638
0.407638
0.407651
0.407665
0.407678
0.407691
0.407691
0.407705
0.407718
0.407732
0.407745
0.407745
0.407759
0.407772
0.407786
0.4078
0.4078
0.407813
0.407827
0.407841
0.407854
0.407854
0.407868
0.407882
0.407896
0.407909
0.407909
0.407923
0.407937
0.407951
0.407965
0.407965
0.407979
0.407993
0.408007
0.408021
0.408021
0.408035
0.408049
0.408063
0.408078
0.408078
0.408092
0.408106
0.40812
0.408135
0.408135
0.408149
0.408163
0.408178
0.408192
0.408192
0.408206
0.408221
0.408235
0.40825
0.40825
0.408264
0.408279
0.408294
0.408308
0.408308
0.408323
0.408338
0.408352
0.408367
0.408367
0.408382
0.408397
0.408411
0.408426
0.408426
0.408441
0.408456
0.408471
0.408486
0.408486
0.408501
0.408516
0.408531
0.408546
0.408546
0.408561
0.408576
0.408591
0.408607
0.408607
0.408622
0.408637
0.408652
0.408668
0.408668
0.408683
0.408698
0.408714
0.408729
0.408729
0.408745
0.40876
0.408776
0.408791
0.408791
0.408807
0.408822
0.408838
0.408854
0.408854
0.408869
0.408885
0.408901
0.408916
0.408916
0.408932
0.408948
0.408964
0.40898
0.40898
0.408996
0.409012
0.409028
0.409044
0.409044
0.40906
0.409076
0.409092
0.409108
0.409108
0.409124
0.40914
0.409156
0.409173
0.409173
0.409189
0.409205
0.409221
0.409238
0.409238
0.409254
0.40927
0.409287
0.409303
0.409303
0.40932
0.409336
0.409353
0.409369
0.409369
0.409386
0.409403
0.409419
0.409436
0.409436
0.409453
0.409469
0.409486
0.409503
0.409503
0.40952
0.409536
0.409553
0.40957
0.40957
0.409587
0.409604
0.409621
0.409638
0.409638
0.409655
0.409672
0.409689
0.409706
0.409706
0.409724
0.409741
0.409758
0.409775
0.409775
0.409792
0.40981
0.409827
0.409844
0.409844
0.409862
0.409879
0.409897
0.409914
0.409914
0.409932
0.409949
0.409967
0.409984
0.409984
0.410002
0.410019
0.410037
0.410055
0.410055
0.410072
0.41009
0.410108
0.410126
0.410126
0.410144
0.410161
0.410179
0.410197
0.410197
0.410215
0.410233
0.410251
0.410269
0.410269
0.410287
0.410305
0.410323
0.410342
0.410342
0.41036
0.410378
0.410396
0.410414
0.410414
0.410433
0.410451
0.410469
0.410488
0.410488
0.410506
0.410525
0.410543
0.410562
0.410562
0.41058
0.410599
0.410617
0.410636
0.410636
0.410654
0.410673
0.410692
0.41071
0.41071
0.410729
0.410748
0.410767
0.410786
0.410786
0.410804
0.410823
0.410842
0.410861
0.410861
0.41088
0.410899
0.410918
0.410937
0.410937
0.410956
0.410975
0.410995
0.411014
0.411014
0.411033
0.411052
0.411071
0.411091
0.411091
0.41111
0.411129
0.411149
0.411168
0.411168
0.411187
0.411207
0.411226
0.411246
0.411246
0.411265
0.411285
0.411305
0.411324
0.411324
0.411344
0.411363
0.411383
0.411403
0.411403
0.411423
0.411442
0.411462
0.411482
0.411482
0.411502
0.411522
0.411542
0.411562
0.411562
0.411582
0.411602
0.411622
0.411642
0.411642
0.411662
0.411682
0.411702
0.411722
0.411722
0.411743
0.411763
0.411783
0.411803
0.411803
0.411824
0.411844
0.411865
0.411885
0.411885
0.411905
0.411926
0.411946
0.411967
0.411967
0.411987
0.412008
0.412029
0.412049
0.412049
0.41207
0.412091
0.412111
0.412132
0.412132
0.412153
0.412174
0.412195
0.412215
0.412215
0.412236
0.412257
0.412278
0.412299
0.412299
0.41232
0.412341
0.412362
0.412383
0.412383
0.412404
0.412426
0.412447
0.412468
0.412468
0.412489
0.41251
0.412532
0.412553
0.412553
0.412574
0.412596
0.412617
0.412639
0.412639
0.41266
0.412682
0.412703
0.412725
0.412725
0.412746
0.412768
0.412789
0.412811
0.412811
0.412833
0.412855
0.412876
0.412898
0.412898
0.41292
0.412942
0.412964
0.412985
0.412985
0.413007
0.413029
0.413051
0.413073
0.413073
0.413095
0.413117
0.413139
0.413162
0.413162
0.413184
0.413206
0.413228
0.41325
0.41325
0.413273
0.413295
0.413317
0.413339
0.413339
0.413362
0.413384
0.413407
0.413429
0.413429
0.413452
0.413474
0.413497
0.413519
0.413519
0.413542
0.413564
0.413587
0.41361
0.41361
0.413632
0.413655
0.413678
0.413701
0.413701
0.413724
0.413746
0.413769
0.413792
0.413792
0.413815
0.413838
0.413861
0.413884
0.413884
0.413907
0.41393
0.413953
0.413976
0.413976
0.414
0.414023
0.414046
0.414069
0.414069
0.414093
0.414116
0.414139
0.414163
0.414163
0.414186
0.414209
0.414233
0.414256
0.414256
0.41428
0.414303
0.414327
0.41435
0.41435
0.414374
0.414398
0.414421
0.414445
0.414445
0.414469
0.414493
0.414516
0.41454
0.41454
0.414564
0.414588
0.414612
0.414636
0.414636
0.41466
0.414684
0.414708
0.414732
0.414732
0.414756
0.41478
0.414804
0.414828
0.414828
0.414852
0.414877
0.414901
0.414925
0.414925
0.414949
0.414974
0.414998
0.415022
0.415022
0.415047
0.415071
0.415096
0.41512
0.41512
0.415145
0.415169
0.415194
0.415218
0.415218
0.415243
0.415268
0.415292
0.415317
0.415317
0.415342
0.415367
0.415392
0.415416
0.415416
0.415441
0.415466
0.415491
0.415516
0.415516
0.415541
0.415566
0.415591
0.415616
0.415616
0.415641
0.415666
0.415691
0.415717
0.415717
0.415742
0.415767
0.415792
0.415818
0.415818
0.415843
0.415868
0.415894
0.415919
0.415919
0.415944
0.41597
0.415995
0.416021
0.416021
0.416046
0.416072
0.416098
0.416123
0.416123
0.416149
0.416175
0.4162
0.416226
0.416226
0.416252
0.416278
0.416303
0.416329
0.416329
0.416355
0.416381
0.416407
0.416433
0.416433
0.416459
0.416485
0.416511
0.416537
0.416537
0.416563
0.416589
0.416616
0.416642
0.416642
0.416668
0.416694
0.416721
0.416747
0.416747
0.416773
0.4168
0.416826
0.416852
0.416852
0.416879
0.416905
0.416932
0.416958
0.416958
0.416985
0.417011
0.417038
0.417065
0.417065
0.417091
0.417118
0.417145
0.417172
0.417172
0.417198
0.417225
0.417252
0.417279
0.417279
0.417306
0.417333
0.41736
0.417387
0.417387
0.417414
0.417441
0.417468
0.417495
0.417495
0.417522
0.417549
0.417576
0.417604
0.417604
0.417631
0.417658
0.417686
0.417713
0.417713
0.41774
0.417768
0.417795
0.417822
0.417822
0.41785
0.417877
0.417905
0.417933
0.417933
0.41796
0.417988
0.418015
0.418043
0.418043
0.418071
0.418098
0.418126
0.418154
0.418154
0.418182
0.41821
0.418238
0.418265
0.418265
0.418293
0.418321
0.418349
0.418377
0.418377
0.418405
0.418433
0.418461
0.41849
0.41849
0.418518
0.418546
0.418574
0.418602
0.418602
0.418631
0.418659
0.418687
0.418716
0.418716
0.418744
0.418772
0.418801
0.418829
0.418829
0.418858
0.418886
0.418915
0.418943
0.418943
0.418972
0.419001
0.419029
0.419058
0.419058
0.419087
0.419116
0.419144
0.419173
0.419173
0.419202
0.419231
0.41926
0.419289
0.419289
0.419318
0.419347
0.419376
0.419405
0.419405
0.419434
0.419463
0.419492
0.419521
0.419521
0.41955
0.419579
0.419609
0.419638
0.419638
0.419667
0.419696
0.419726
0.419755
0.419755
0.419785
0.419814
0.419843
0.419873
0.419873
0.419902
0.419932
0.419962
0.419991
0.419991
0.420021
0.42005
0.42008
0.42011
0.42011
0.42014
0.420169
0.420199
0.420229
0.420229
0.420259
0.420289
0.420319
0.420349
0.420349
0.420378
0.420408
0.420438
0.420469
0.420469
0.420499
0.420529
0.420559
0.420589
0.420589
0.420619
0.420649
0.42068
0.42071
0.42071
0.42074
0.420771
0.420801
0.420831
0.420831
0.420862
0.420892
0.420923
0.420953
0.420953
0.420984
0.421014
0.421045
0.421076
0.421076
0.421106
0.421137
0.421168
0.421198
0.421198
0.421229
0.42126
0.421291
0.421322
0.421322
0.421352
0.421383
0.421414
0.421445
0.421445
0.421476
0.421507
0.421538
0.421569
0.421569
0.4216
0.421632
0.421663
0.421694
0.421694
0.421725
0.421756
0.421788
0.421819
0.421819
0.42185
0.421882
0.421913
0.421944
0.421944
0.421976
0.422007
0.422039
0.42207
0.42207
0.422102
0.422133
0.422165
0.422197
0.422197
0.422228
0.42226
0.422292
0.422324
0.422324
0.422355
0.422387
0.422419
0.422451
0.422451
0.422483
0.422515
0.422547
0.422579
0.422579
0.422611
0.422643
0.422675
0.422707
0.422707
0.422739
0.422771
0.422803
0.422835
0.422835
0.422868
0.4229
0.422932
0.422965
0.422965
0.422997
0.423029
0.423062
0.423094
0.423094
0.423127
0.423159
0.423192
0.423224
0.423224
0.423257
0.423289
0.423322
0.423355
0.423355
0.423387
0.42342
0.423453
0.423486
0.423486
0.423518
0.423551
0.423584
0.423617
0.423617
0.42365
0.423683
0.423716
0.423749
0.423749
0.423782
0.423815
0.423848
0.423881
0.423881
0.423914
0.423947
0.423981
0.424014
0.424014
0.424047
0.42408
0.424114
0.424147
0.424147
0.42418
0.424214
0.424247
0.424281
0.424281
0.424314
0.424348
0.424381
0.424415
0.424415
0.424448
0.424482
0.424516
0.424549
0.424549
0.424583
0.424617
0.424651
0.424684
0.424684
0.424718
0.424752
0.424786
0.42482
0.42482
0.424854
0.424888
0.424922
0.424956
0.424956
0.42499
0.425024
0.425058
0.425092
0.425092
0.425126
0.42516
0.425195
0.425229
0.425229
0.425263
0.425298
0.425332
0.425366
0.425366
0.425401
0.425435
0.425469
0.425504
0.425504
0.425538
0.425573
0.425608
0.425642
0.425642
0.425677
0.425711
0.425746
0.425781
0.425781
0.425816
0.42585
0.425885
0.42592
0.42592
0.425955
0.42599
0.426025
0.426059
0.426059
0.426094
0.426129
0.426164
0.426199
0.426199
0.426235
0.42627
0.426305
0.42634
0.42634
0.426375
0.42641
0.426446
0.426481
0.426481
0.426516
0.426551
0.426587
0.426622
0.426622
0.426658
0.426693
0.426729
0.426764
0.426764
0.4268
0.426835
0.426871
0.426906
0.426906
0.426942
0.426978
0.427013
0.427049
0.427049
0.427085
0.427121
0.427156
0.427192
0.427192
0.427228
0.427264
0.4273
0.427336
0.427336
0.427372
0.427408
0.427444
0.42748
0.42748
0.427516
0.427552
0.427588
0.427624
0.427624
0.427661
0.427697
0.427733
0.427769
0.427769
0.427806
0.427842
0.427879
0.427915
0.427915
0.427951
0.427988
0.428024
0.428061
0.428061
0.428097
0.428134
0.428171
0.428207
0.428207
0.428244
0.428281
0.428317
0.428354
0.428354
0.428391
0.428428
0.428464
0.428501
0.428501
0.428538
0.428575
0.428612
0.428649
0.428649
0.428686
0.428723
0.42876
0.428797
0.428797
0.428834
0.428871
0.428909
0.428946
0.428946
0.428983
0.42902
0.429058
0.429095
0.429095
0.429132
0.42917
0.429207
0.429244
0.429244
0.429282
0.429319
0.429357
0.429394
0.429394
0.429432
0.42947
0.429507
0.429545
0.429545
0.429583
0.42962
0.429658
0.429696
0.429696
0.429734
0.429771
0.429809
0.429847
0.429847
0.429885
0.429923
0.429961
0.429999
0.429999
0.430037
0.430075
0.430113
0.430151
0.430151
0.430189
0.430228
0.430266
0.430304
0.430304
0.430342
0.430381
0.430419
0.430457
0.430457
0.430496
0.430534
0.430572
0.430611
0.430611
0.430649
0.430688
0.430726
0.430765
0.430765
0.430803
0.430842
0.430881
0.430919
0.430919
0.430958
0.430997
0.431036
0.431074
0.431074
0.431113
0.431152
0.431191
0.43123
0.43123
0.431269
0.431308
0.431347
0.431386
0.431386
0.431425
0.431464
0.431503
0.431542
0.431542
0.431581
0.43162
0.43166
0.431699
0.431699
0.431738
0.431778
0.431817
0.431856
0.431856
0.431896
0.431935
0.431974
0.432014
0.432014
0.432053
0.432093
0.432133
0.432172
0.432172
0.432212
0.432251
0.432291
0.432331
0.432331
0.43237
0.43241
0.43245
0.43249
0.43249
0.43253
0.43257
0.432609
0.432649
0.432649
0.432689
0.432729
0.432769
0.432809
0.432809
0.432849
0.43289
0.43293
0.43297
0.43297
0.43301
0.43305
0.43309
0.433131
0.433131
0.433171
0.433211
0.433252
0.433292
0.433292
0.433332
0.433373
0.433413
0.433454
0.433454
0.433494
0.433535
0.433576
0.433616
0.433616
0.433657
0.433697
0.433738
0.433779
0.433779
0.43382
0.43386
0.433901
0.433942
0.433942
0.433983
0.434024
0.434065
0.434106
0.434106
0.434147
0.434188
0.434229
0.43427
0.43427
0.434311
0.434352
0.434393
0.434434
0.434434
0.434476
0.434517
0.434558
0.434599
0.434599
0.434641
0.434682
0.434723
0.434765
0.434765
0.434806
0.434848
0.434889
0.434931
0.434931
0.434972
0.435014
0.435055
0.435097
0.435097
0.435139
0.43518
0.435222
0.435264
0.435264
0.435306
0.435347
0.435389
0.435431
0.435431
0.435473
0.435515
0.435557
0.435599
0.435599
0.435641
0.435683
0.435725
0.435767
0.435767
0.435809
0.435851
0.435893
0.435936
0.435936
0.435978
0.43602
0.436062
0.436105
0.436105
0.436147
0.436189
0.436232
0.436274
0.436274
0.436317
0.436359
0.436402
0.436444
0.436444
0.436487
0.436529
0.436572
0.436615
0.436615
0.436657
0.4367
0.436743
0.436786
0.436786
0.436828
0.436871
0.436914
0.436957
0.436957
0.437
0.437043
0.437086
0.437129
0.437129
0.437172
0.437215
0.437258
0.437301
0.437301
0.437344
0.437387
0.437431
0.437474
0.437474
0.437517
0.43756
0.437604
0.437647
0.437647
0.43769
0.437734
0.437777
0.437821
0.437821
0.437864
0.437908
0.437951
0.437995
0.437995
0.438038
0.438082
0.438126
0.438169
0.438169
0.438213
0.438257
0.4383
0.438344
0.438344
0.438388
0.438432
0.438476
0.43852
0.43852
0.438564
0.438608
0.438652
0.438696
0.438696
0.43874
0.438784
0.438828
0.438872
0.438872
0.438916
0.43896
0.439005
0.439049
0.439049
0.439093
0.439137
0.439182
0.439226
0.439226
0.439271
0.439315
0.439359
0.439404
0.439404
0.439448
0.439493
0.439537
0.439582
0.439582
0.439627
0.439671
0.439716
0.439761
0.439761
0.439805
0.43985
0.439895
0.43994
0.43994
0.439985
0.44003
0.440074
0.440119
0.440119
0.440164
0.440209
0.440254
0.440299
0.440299
0.440344
0.44039
0.440435
0.44048
0.44048
0.440525
0.44057
0.440616
0.440661
0.440661
0.440706
0.440751
0.440797
0.440842
0.440842
0.440888
0.440933
0.440979
0.441024
0.441024
0.44107
0.441115
0.441161
0.441206
0.441206
0.441252
0.441298
0.441343
0.441389
0.441389
0.441435
0.441481
0.441526
0.441572
0.441572
0.441618
0.441664
0.44171
0.441756
0.441756
0.441802
0.441848
0.441894
0.44194
0.44194
0.441986
0.442032
0.442078
0.442125
0.442125
0.442171
0.442217
0.442263
0.44231
0.44231
0.442356
0.442402
0.442449
0.442495
0.442495
0.442542
0.442588
0.442635
0.442681
0.442681
0.442728
0.442774
0.442821
0.442867
0.442867
0.442914
0.442961
0.443008
0.443054
0.443054
0.443101
0.443148
0.443195
0.443242
0.443242
0.443289
0.443335
0.443382
0.443429
0.443429
0.443476
0.443523
0.443571
0.443618
0.443618
0.443665
0.443712
0.443759
0.443806
0.443806
0.443854
0.443901
0.443948
0.443995
0.443995
0.444043
0.44409
0.444138
0.444185
0.444185
0.444232
0.44428
0.444327
0.444375
0.444375
0.444423
0.44447
0.444518
0.444566
0.444566
0.444613
0.444661
0.444709
0.444757
0.444757
0.444804
0.444852
0.4449
0.444948
0.444948
0.444996
0.445044
0.445092
0.44514
0.44514
0.445188
0.445236
0.445284
0.445332
0.445332
0.44538
0.445428
0.445477
0.445525
0.445525
0.445573
0.445621
0.44567
0.445718
0.445718
0.445767
0.445815
0.445863
0.445912
0.445912
0.44596
0.446009
0.446057
0.446106
0.446106
0.446155
0.446203
0.446252
0.446301
0.446301
0.446349
0.446398
0.446447
0.446496
0.446496
0.446545
0.446593
0.446642
0.446691
0.446691
0.44674
0.446789
0.446838
0.446887
0.446887
0.446936
0.446985
0.447034
0.447084
0.447084
0.447133
0.447182
0.447231
0.447281
0.447281
0.44733
0.447379
0.447428
0.447478
0.447478
0.447527
0.447577
0.447626
0.447676
0.447676
0.447725
0.447775
0.447824
0.447874
0.447874
0.447924
0.447973
0.448023
0.448073
0.448073
0.448122
0.448172
0.448222
0.448272
0.448272
0.448322
0.448372
0.448422
0.448471
0.448471
0.448521
0.448571
0.448621
0.448672
0.448672
0.448722
0.448772
0.448822
0.448872
0.448872
0.448922
0.448973
0.449023
0.449073
0.449073
0.449123
0.449174
0.449224
0.449275
0.449275
0.449325
0.449375
0.449426
0.449476
0.449476
0.449527
0.449578
0.449628
0.449679
0.449679
0.44973
0.44978
0.449831
0.449882
0.449882
0.449932
0.449983
0.450034
0.450085
0.450085
0.450136
0.450187
0.450238
0.450289
0.450289
0.45034
0.450391
0.450442
0.450493
0.450493
0.450544
0.450595
0.450646
0.450698
0.450698
0.450749
0.4508
0.450851
0.450903
0.450903
0.450954
0.451005
0.451057
0.451108
0.451108
0.45116
0.451211
0.451263
0.451314
0.451314
0.451366
0.451418
0.451469
0.451521
0.451521
0.451573
0.451624
0.451676
0.451728
0.451728
0.45178
0.451831
0.451883
0.451935
0.451935
0.451987
0.452039
0.452091
0.452143
0.452143
0.452195
0.452247
0.452299
0.452351
0.452351
0.452404
0.452456
0.452508
0.45256
0.45256
0.452612
0.452665
0.452717
0.452769
0.452769
0.452822
0.452874
0.452927
0.452979
0.452979
0.453032
0.453084
0.453137
0.453189
0.453189
0.453242
0.453295
0.453347
0.4534
0.4534
0.453453
0.453505
0.453558
0.453611
0.453611
0.453664
0.453717
0.45377
0.453823
0.453823
0.453875
0.453928
0.453981
0.454035
0.454035
0.454088
0.454141
0.454194
0.454247
0.454247
0.4543
0.454353
0.454407
0.45446
0.45446
0.454513
0.454567
0.45462
0.454673
0.454673
0.454727
0.45478
0.454834
0.454887
0.454887
0.454941
0.454994
0.455048
0.455101
0.455101
0.455155
0.455209
0.455262
0.455316
0.455316
0.45537
0.455424
0.455477
0.455531
0.455531
0.455585
0.455639
0.455693
0.455747
0.455747
0.455801
0.455855
0.455909
0.455963
0.455963
0.456017
0.456071
0.456125
0.45618
0.45618
0.456234
0.456288
0.456342
0.456397
0.456397
0.456451
0.456505
0.45656
0.456614
0.456614
0.456669
0.456723
0.456778
0.456832
0.456832
0.456887
0.456941
0.456996
0.457051
0.457051
0.457105
0.45716
0.457215
0.457269
0.457269
0.457324
0.457379
0.457434
0.457489
0.457489
0.457544
0.457599
0.457654
0.457709
0.457709
0.457764
0.457819
0.457874
0.457929
0.457929
0.457984
0.458039
0.458094
0.45815
0.45815
0.458205
0.45826
0.458315
0.458371
0.458371
0.458426
0.458481
0.458537
0.458592
0.458592
0.458648
0.458703
0.458759
0.458814
0.458814
0.45887
0.458926
0.458981
0.459037
0.459037
0.459093
0.459148
0.459204
0.45926
0.45926
0.459316
0.459372
0.459428
0.459483
0.459483
0.459539
0.459595
0.459651
0.459707
0.459707
0.459763
0.45982
0.459876
0.459932
0.459932
0.459988
0.460044
0.4601
0.460157
0.460157
0.460213
0.460269
0.460326
0.460382
0.460382
0.460438
0.460495
0.460551
0.460608
0.460608
0.460664
0.460721
0.460777
0.460834
0.460834
0.460891
0.460947
0.461004
0.461061
0.461061
0.461117
0.461174
0.461231
0.461288
0.461288
0.461345
0.461402
0.461458
0.461515
0.461515
0.461572
0.461629
0.461686
0.461743
0.461743
0.461801
0.461858
0.461915
0.461972
0.461972
0.462029
0.462086
0.462144
0.462201
0.462201
0.462258
0.462316
0.462373
0.46243
0.46243
0.462488
0.462545
0.462603
0.46266
0.46266
0.462718
0.462775
0.462833
0.462891
0.462891
0.462948
0.463006
0.463064
0.463122
0.463122
0.463179
0.463237
0.463295
0.463353
0.463353
0.463411
0.463469
0.463527
0.463585
0.463585
0.463643
0.463701
0.463759
0.463817
0.463817
0.463875
0.463933
0.463991
0.464049
0.464049
0.464108
0.464166
0.464224
0.464283
0.464283
0.464341
0.464399
0.464458
0.464516
0.464516
0.464575
0.464633
0.464692
0.46475
0.46475
0.464809
0.464867
0.464926
0.464985
0.464985
0.465043
0.465102
0.465161
0.46522
0.46522
0.465279
0.465337
0.465396
0.465455
0.465455
0.465514
0.465573
0.465632
0.465691
0.465691
0.46575
0.465809
0.465868
0.465927
0.465927
0.465987
0.466046
0.466105
0.466164
0.466164
0.466224
0.466283
0.466342
0.466402
0.466402
0.466461
0.46652
0.46658
0.466639
0.466639
0.466699
0.466758
0.466818
0.466878
0.466878
0.466937
0.466997
0.467057
0.467116
0.467116
0.467176
0.467236
0.467296
0.467355
0.467355
0.467415
0.467475
0.467535
0.467595
0.467595
0.467655
0.467715
0.467775
0.467835
0.467835
0.467895
0.467955
0.468015
0.468076
0.468076
0.468136
0.468196
0.468256
0.468317
0.468317
0.468377
0.468437
0.468498
0.468558
0.468558
0.468618
0.468679
0.468739
0.4688
0.4688
0.468861
0.468921
0.468982
0.469042
0.469042
0.469103
0.469164
0.469224
0.469285
0.469285
0.469346
0.469407
0.469468
0.469528
0.469528
0.469589
0.46965
0.469711
0.469772
0.469772
0.469833
0.469894
0.469955
0.470016
0.470016
0.470078
0.470139
0.4702
0.470261
0.470261
0.470322
0.470384
0.470445
0.470506
0.470506
0.470568
0.470629
0.470691
0.470752
0.470752
0.470813
0.470875
0.470936
0.470998
0.470998
0.47106
0.471121
0.471183
0.471245
0.471245
0.471306
0.471368
0.47143
0.471492
0.471492
0.471553
0.471615
0.471677
0.471739
0.471739
0.471801
0.471863
0.471925
0.471987
0.471987
0.472049
0.472111
0.472173
0.472235
0.472235
0.472298
0.47236
0.472422
0.472484
0.472484
0.472547
0.472609
0.472671
0.472734
0.472734
0.472796
0.472858
0.472921
0.472983
0.472983
0.473046
0.473108
0.473171
0.473234
0.473234
0.473296
0.473359
0.473422
0.473484
0.473484
0.473547
0.47361
0.473673
0.473736
0.473736
0.473798
0.473861
0.473924
0.473987
0.473987
0.47405
0.474113
0.474176
0.474239
0.474239
0.474302
0.474366
0.474429
0.474492
0.474492
0.474555
0.474618
0.474682
0.474745
0.474745
0.474808
0.474872
0.474935
0.474998
0.474998
0.475062
0.475125
0.475189
0.475252
0.475252
0.475316
0.47538
0.475443
0.475507
0.475507
0.475571
0.475634
0.475698
0.475762
0.475762
0.475826
0.475889
0.475953
0.476017
0.476017
0.476081
0.476145
0.476209
0.476273
0.476273
0.476337
0.476401
0.476465
0.476529
0.476529
0.476593
0.476658
0.476722
0.476786
0.476786
0.47685
0.476915
0.476979
0.477043
0.477043
0.477108
0.477172
0.477237
0.477301
0.477301
0.477365
0.47743
0.477495
0.477559
0.477559
0.477624
0.477688
0.477753
0.477818
0.477818
0.477883
0.477947
0.478012
0.478077
0.478077
0.478142
0.478207
0.478272
0.478336
0.478336
0.478401
0.478466
0.478531
0.478596
0.478596
0.478662
0.478727
0.478792
0.478857
0.478857
0.478922
0.478987
0.479053
0.479118
0.479118
0.479183
0.479249
0.479314
0.479379
0.479379
0.479445
0.47951
0.479576
0.479641
0.479641
0.479707
0.479772
0.479838
0.479904
0.479904
0.479969
0.480035
0.480101
0.480166
0.480166
0.480232
0.480298
0.480364
0.48043
0.48043
0.480496
0.480562
0.480628
0.480694
0.480694
0.48076
0.480826
0.480892
0.480958
0.480958
0.481024
0.48109
0.481156
0.481222
0.481222
0.481289
0.481355
0.481421
0.481488
0.481488
0.481554
0.48162
0.481687
0.481753
0.481753
0.48182
0.481886
0.481953
0.482019
0.482019
0.482086
0.482153
0.482219
0.482286
0.482286
0.482353
0.482419
0.482486
0.482553
0.482553
0.48262
0.482687
0.482754
0.48282
0.48282
0.482887
0.482954
0.483021
0.483088
0.483088
0.483155
0.483223
0.48329
0.483357
0.483357
0.483424
0.483491
0.483559
0.483626
0.483626
0.483693
0.48376
0.483828
0.483895
0.483895
0.483963
0.48403
0.484098
0.484165
0.484165
0.484233
0.4843
0.484368
0.484435
0.484435
0.484503
0.484571
0.484638
0.484706
0.484706
0.484774
0.484842
0.48491
0.484977
0.484977
0.485045
0.485113
0.485181
0.485249
0.485249
0.485317
0.485385
0.485453
0.485521
0.485521
0.485589
0.485658
0.485726
0.485794
0.485794
0.485862
0.48593
0.485999
0.486067
0.486067
0.486135
0.486204
0.486272
0.486341
0.486341
0.486409
0.486478
0.486546
0.486615
0.486615
0.486683
0.486752
0.486821
0.486889
0.486889
0.486958
0.487027
0.487096
0.487164
0.487164
0.487233
0.487302
0.487371
0.48744
0.48744
0.487509
0.487578
0.487647
0.487716
0.487716
0.487785
0.487854
0.487923
0.487992
0.487992
0.488061
0.488131
0.4882
0.488269
0.488269
0.488338
0.488408
0.488477
0.488546
0.488546
0.488616
0.488685
0.488755
0.488824
0.488824
0.488894
0.488963
0.489033
0.489103
0.489103
0.489172
0.489242
0.489312
0.489381
0.489381
0.489451
0.489521
0.489591
0.489661
0.489661
0.48973
0.4898
0.48987
0.48994
0.48994
0.49001
0.49008
0.49015
0.49022
0.49022
0.490291
0.490361
0.490431
0.490501
0.490501
0.490571
0.490642
0.490712
0.490782
0.490782
0.490853
0.490923
0.490993
0.491064
0.491064
0.491134
0.491205
0.491275
0.491346
0.491346
0.491417
0.491487
0.491558
0.491629
0.491629
0.491699
0.49177
0.491841
0.491912
0.491912
0.491982
0.492053
0.492124
0.492195
0.492195
0.492266
0.492337
0.492408
0.492479
0.492479
0.49255
0.492621
0.492692
0.492763
0.492763
0.492835
0.492906
0.492977
0.493048
0.493048
0.49312
0.493191
0.493262
0.493334
0.493334
0.493405
0.493477
0.493548
0.49362
0.49362
0.493691
0.493763
0.493834
0.493906
0.493906
0.493978
0.494049
0.494121
0.494193
0.494193
0.494265
0.494336
0.494408
0.49448
0.49448
0.494552
0.494624
0.494696
0.494768
0.494768
0.49484
0.494912
0.494984
0.495056
0.495056
0.495128
0.4952
0.495272
0.495345
0.495345
0.495417
0.495489
0.495562
0.495634
0.495634
0.495706
0.495779
0.495851
0.495924
0.495924
0.495996
0.496069
0.496141
0.496214
0.496214
0.496286
0.496359
0.496432
0.496504
0.496504
0.496577
0.49665
0.496723
0.496795
0.496795
0.496868
0.496941
0.497014
0.497087
0.497087
0.49716
0.497233
0.497306
0.497379
0.497379
0.497452
0.497525
0.497598
0.497671
0.497671
0.497745
0.497818
0.497891
0.497964
0.497964
0.498038
0.498111
0.498184
0.498258
0.498258
0.498331
0.498405
0.498478
0.498552
0.498552
0.498625
0.498699
0.498773
0.498846
0.498846
0.49892
0.498994
0.499067
0.499141
0.499141
0.499215
0.499289
0.499363
0.499436
0.499436
0.49951
0.499584
0.499658
0.499732
0.499732
0.499806
0.49988
0.499954
0.500029
0.500029
0.500103
0.500177
0.500251
0.500325
0.500325
0.5004
0.500474
0.500548
0.500623
0.500623
0.500697
0.500771
0.500846
0.50092
0.50092
0.500995
0.501069
0.501144
0.501219
0.501219
0.501293
0.501368
0.501443
0.501517
0.501517
0.501592
0.501667
0.501742
0.501816
0.501816
0.501891
0.501966
0.502041
0.502116
0.502116
0.502191
0.502266
0.502341
0.502416
0.502416
0.502491
0.502566
0.502642
0.502717
0.502717
0.502792
0.502867
0.502943
0.503018
0.503018
0.503093
0.503169
0.503244
0.503319
0.503319
0.503395
0.50347
0.503546
0.503621
0.503621
0.503697
0.503773
0.503848
0.503924
0.503924
0.504
0.504075
0.504151
0.504227
0.504227
0.504303
0.504379
0.504455
0.50453
0.50453
0.504606
0.504682
0.504758
0.504834
0.504834
0.50491
0.504987
0.505063
0.505139
0.505139
0.505215
0.505291
0.505367
0.505444
0.505444
0.50552
0.505596
0.505673
0.505749
0.505749
0.505826
0.505902
0.505979
0.506055
0.506055
0.506132
0.506208