<?xml version="1.0"?>
<VTKFile type="UnstructuredGrid" version="0.1" byte_order="LittleEndian">
<UnstructuredGrid>
<Piece NumberOfPoints="5000" NumberOfCells="4000">
<PointData Scalars="Reaction 0">
<DataArray type="Float32" Name="Reaction 0" format="ascii">
0.602607
0.602607
0.602607
0.602607
0.602607
0.602607
0.602607
0.602607
0.602607
0.602607
0.602607
0.602607
0.602607
0.602607
0.602607
0.602607
0.602607
0.602607
0.602607
0.602607
0.602607
0.602607
0.602607
0.602607
0.602607
0.602607
0.602607
0.602607
0.602607
0.602607
0.602607
0.602607
0.602607
0.602607
0.602607
0.602607
0.602607
0.602607
0.602607
0.602607
0.602607
0.602607
0.602607
0.602607
0.602607
0.602607
0.602607
0.602607
0.602607
0.602607
0.602607
0.602607
0.602607
0.602607
0.602607
0.602607
0.602607
0.602607
0.602606
0.602606
0.602606
0.602606
0.602606
0.602606
0.602606
0.602606
0.602606
0.602606
0.602606
0.602606
0.602606
0.602606
0.602606
0.602606
0.602606
0.602606
0.602606
0.602606
0.602606
0.602606
0.602606
0.602606
0.602606
0.602606
0.602606
0.602606
0.602606
0.602606
0.602606
0.602606
0.602606
0.602606
0.602606
0.602606
0.602606
0.602606
0.602606
0.602606
0.602606
0.602606
0.602606
0.602605
0.602605
0.602605
0.602605
0.602605
0.602605
0.602605
0.602605
0.602605
0.602605
0.602605
0.602605
0.602605
0.602605
0.602605
0.602605
0.602605
0.602605
0.602605
0.602605
0.602605
0.602605
0.602605
0.602605
0.602605
0.602605
0.602605
0.602605
0.602605
0.602605
0.602604
0.602604
0.602604
0.602604
0.602604
0.602604
0.602604
0.602604
0.602604
0.602604
0.602604
0.602604
0.602604
0.602604
0.602604
0.602604
0.602604
0.602604
0.602604
0.602604
0.602604
0.602604
0.602604
0.602604
0.602604
0.602603
0.602603
0.602603
0.602603
0.602603
0.602603
0.602603
0.602603
0.602603
0.602603
0.602603
0.602603
0.602603
0.602603
0.602603
0.602603
0.602603
0.602603
0.602603
0.602603
0.602603
0.602603
0.602602
0.602602
0.602602
0.602602
0.602602
0.602602
0.602602
0.602602
0.602602
0.602602
0.602602
0.602602
0.602602
0.602602
0.602602
0.602602
0.602602
0.602602
0.602601
0.602601
0.602601
0.602601
0.602601
0.602601
0.602601
0.602601
0.6026
0.6026
0.6026
0.6026
0.6026
0.6026
0.6026
0.6026
0.6026
0.602599
0.602599
0.602599
0.602599
0.602599
0.602599
0.602599
0.602599
0.602598
0.602598
0.602598
0.602598
0.602598
0.602598
0.602598
0.602598
0.602597
0.602597
0.602597
0.602597
0.602597
0.602597
0.602597
0.602597
0.602596
0.602596
0.602596
0.602596
0.602596
0.602596
0.602596
0.602595
0.602595
0.602595
0.602595
0.602595
0.602595
0.602595
0.602595
0.602594
0.602594
0.602594
0.602594
0.602594
0.602594
0.602593
0.602593
0.602593
0.602593
0.602593
0.602593
0.602593
0.602593
0.602592
0.602592
0.602592
0.602592
0.602592
0.602592
0.602592
0.602591
0.602591
0.602591
0.602591
0.602591
0.602591
0.60259
0.60259
0.60259
0.60259
0.60259
0.60259
0.60259
0.602589
0.602589
0.602589
0.602589
0.602589
0.602589
0.602589
0.602588
0.602588
0.602588
0.602588
0.602588
0.602588
0.602587
0.602587
0.602587
0.602587
0.602587
0.602587
0.602587
0.602586
0.602586
0.602586
0.602586
0.602586
0.602586
0.602585
0.602585
0.602585
0.602585
0.602585
0.602585
0.602584
0.602584
0.602584
0.602584
0.602584
0.602584
0.602583
0.602583
0.602583
0.602583
0.602583
0.602583
0.602583
0.602582
0.602582
0.602582
0.602582
0.602582
0.602582
0.602581
0.602581
0.602581
0.602581
0.602581
0.602581
0.60258
0.60258
0.60258
0.60258
0.60258
0.60258
0.602579
0.602579
0.602579
0.602579
0.602579
0.602579
0.602579
0.602578
0.602578
0.602578
0.602578
0.602578
0.602577
0.602577
0.602577
0.602577
0.602577
0.602577
0.602576
0.602576
0.602576
0.602576
0.602576
0.602575
0.602575
0.602575
0.602575
0.602575
0.602574
0.602574
0.602574
0.602574
0.602573
0.602573
0.602573
0.602572
0.602572
0.602572
0.602572
0.602571
0.602571
0.602571
0.602571
0.60257
0.60257
0.602569
0.602569
0.602569
0.602569
0.602568
0.602568
0.602568
0.602568
0.602567
0.602567
0.602567
0.602567
0.602566
0.602566
0.602565
0.602565
0.602565
0.602565
0.602564
0.602564
0.602564
0.602564
0.602563
0.602563
0.602563
0.602562
0.602562
0.602562
0.602561
0.602561
0.602561
0.602561
0.60256
0.60256
0.60256
0.602559
0.602559
0.602559
0.602558
0.602558
0.602558
0.602558
0.602557
0.602557
0.602557
0.602556
0.602556
0.602556
0.602555
0.602555
0.602555
0.602555
0.602554
0.602554
0.602554
0.602553
0.602553
0.602553
0.602552
0.602552
0.602552
0.602552
0.602551
0.602551
0.602551
0.60255
0.60255
0.60255
0.602549
0.602549
0.602549
0.602549
0.602548
0.602548
0.602548
0.602547
0.602547
0.602547
0.602546
0.602546
0.602546
0.602546
0.602545
0.602545
0.602545
0.602544
0.602544
0.602544
0.602543
0.602543
0.602543
0.602543
0.602542
0.602542
0.602541
0.602541
0.602541
0.602541
0.60254
0.60254
0.602539
0.602539
0.602539
0.602538
0.602538
0.602537
0.602537
0.602537
0.602536
0.602536
0.602535
0.602535
0.602534
0.602534
0.602533
0.602533
0.602533
0.602532
0.602532
0.602531
0.602531
0.602531
0.60253
0.602529
0.602529
0.602528
0.602528
0.602528
0.602527
0.602527
0.602526
0.602526
0.602526
0.602525
0.602524
0.602524
0.602524
0.602523
0.602523
0.602522
0.602522
0.602522
0.602521
0.602521
0.60252
0.602519
0.602519
0.602519
0.602518
0.602518
0.602517
0.602517
0.602517
0.602516
0.602515
0.602515
0.602515
0.602514
0.602514
0.602513
0.602513
0.602513
0.602512
0.602511
0.602511
0.60251
0.60251
0.60251
0.602509
0.602509
0.602508
0.602508
0.602508
0.602507
0.602506
0.602506
0.602506
0.602505
0.602505
0.602504
0.602504
0.602504
0.602503
0.602502
0.602502
0.602501
0.602501
0.602501
0.6025
0.6025
0.602499
0.602499
0.602498
0.602498
0.602497
0.602497
0.602497
0.602496
0.602495
0.602495
0.602494
0.602494
0.602493
0.602492
0.602492
0.602491
0.602491
0.60249
0.602489
0.602489
0.602488
0.602488
0.602487
0.602486
0.602486
0.602485
0.602485
0.602484
0.602483
0.602483
0.602482
0.602482
0.602481
0.60248
0.60248
0.602479
0.602479
0.602478
0.602477
0.602477
0.602476
0.602476
0.602475
0.602474
0.602474
0.602473
0.602473
0.602472
0.602471
0.602471
0.60247
0.60247
0.602469
0.602468
0.602468
0.602467
0.602467
0.602466
0.602465
0.602465
0.602464
0.602464
0.602463
0.602462
0.602461
0.602461
0.602461
0.60246
0.602459
0.602458
0.602458
0.602458
0.602457
0.602456
0.602455
0.602455
0.602455
0.602454
0.602453
0.602452
0.602452
0.602452
0.602451
0.60245
0.602449
0.602449
0.602449
0.602448
0.602447
0.602446
0.602445
0.602445
0.602444
0.602444
0.602443
0.602442
0.602442
0.602441
0.60244
0.602439
0.602438
0.602438
0.602437
0.602436
0.602435
0.602434
0.602434
0.602433
0.602432
0.602431
0.60243
0.60243
0.602429
0.602429
0.602428
0.602427
0.602427
0.602426
0.602425
0.602424
0.602423
0.602423
0.602422
0.602421
0.60242
0.602419
0.602419
0.602418
0.602417
0.602416
0.602415
0.602415
0.602414
0.602413
0.602412
0.602411
0.602411
0.60241
0.60241
0.602409
0.602408
0.602408
0.602407
0.602406
0.602405
0.602404
0.602404
0.602403
0.602402
0.602401
0.6024
0.6024
0.602399
0.602398
0.602397
0.602396
0.602396
0.602395
0.602394
0.602393
0.602392
0.602392
0.602391
0.60239
0.602389
0.602388
0.602388
0.602387
0.602386
0.602385
0.602384
0.602384
0.602383
0.602382
0.602381
0.60238
0.60238
0.602378
0.602377
0.602376
0.602375
0.602375
0.602374
0.602373
0.602372
0.60237
0.60237
0.602369
0.602368
0.602367
0.602366
0.602366
0.602365
0.602364
0.602362
0.602361
0.602361
0.60236
0.602359
0.602358
0.602357
0.602357
0.602356
0.602354
0.602353
0.602352
0.602352
0.602351
0.60235
0.602349
0.602348
0.602348
0.602347
0.602345
0.602344
0.602343
0.602343
0.602342
0.602341
0.60234
0.602339
0.602339
0.602337
0.602336
0.602335
0.602334
0.602334
0.602333
0.602332
0.602331
0.602329
0.602329
0.602328
0.602327
0.602326
0.602325
0.602325
0.602323
0.602322
0.602321
0.602319
0.602319
0.602318
0.602317
0.602315
0.602314
0.602314
0.602313
0.602312
0.60231
0.602309
0.602309
0.602308
0.602306
0.602305
0.602304
0.602304
0.602302
0.602301
0.6023
0.602298
0.602298
0.602297
0.602296
0.602294
0.602293
0.602293
0.602292
0.60229
0.602289
0.602288
0.602288
0.602286
0.602285
0.602284
0.602282
0.602282
0.602281
0.60228
0.602278
0.602277
0.602277
0.602276
0.602274
0.602273
0.602272
0.602272
0.602271
0.602269
0.602268
0.602267
0.602267
0.602265
0.602264
0.602263
0.602261
0.602261
0.60226
0.602258
0.602257
0.602256
0.602256
0.602254
0.602253
0.602251
0.60225
0.60225
0.602248
0.602247
0.602245
0.602244
0.602244
0.602242
0.602241
0.602239
0.602238
0.602238
0.602236
0.602235
0.602233
0.602232
0.602232
0.60223
0.602229
0.602227
0.602226
0.602226
0.602224
0.602223
0.602221
0.60222
0.60222
0.602218
0.602217
0.602215
0.602214
0.602214
0.602212
0.602211
0.602209
0.602208
0.602208
0.602206
0.602205
0.602203
0.602202
0.602202
0.6022
0.602199
0.602197
0.602196
0.602196
0.602194
0.602193
0.602191
0.60219
0.60219
0.602188
0.602186
0.602185
0.602183
0.602183
0.602182
0.60218
0.602178
0.602177
0.602177
0.602175
0.602173
0.602172
0.60217
0.60217
0.602168
0.602167
0.602165
0.602163
0.602163
0.602162
0.60216
0.602158
0.602157
0.602157
0.602155
0.602153
0.602152
0.60215
0.60215
0.602148
0.602147
0.602145
0.602143
0.602143
0.602142
0.60214
0.602138
0.602137
0.602137
0.602135
0.602133
0.602132
0.60213
0.60213
0.602128
0.602127
0.602125
0.602123
0.602123
0.602122
0.60212
0.602118
0.602117
0.602117
0.602115
0.602113
0.602111
0.60211
0.60211
0.602108
0.602106
0.602104
0.602103
0.602103
0.602101
0.602099
0.602097
0.602095
0.602095
0.602093
0.602092
0.60209
0.602088
0.602088
0.602086
0.602084
0.602082
0.602081
0.602081
0.602079
0.602077
0.602075
0.602073
0.602073
0.602071
0.60207
0.602068
0.602066
0.602066
0.602064
0.602062
0.60206
0.602059
0.602059
0.602057
0.602055
0.602053
0.602051
0.602051
0.60205
0.602048
0.602046
0.602044
0.602044
0.602042
0.60204
0.602039
0.602037
0.602037
0.602035
0.602033
0.602031
0.602029
0.602029
0.602027
0.602025
0.602023
0.602021
0.602021
0.602019
0.602017
0.602015
0.602013
0.602013
0.602011
0.602009
0.602007
0.602005
0.602005
0.602003
0.602001
0.601999
0.601998
0.601998
0.601996
0.601994
0.601992
0.60199
0.60199
0.601988
0.601986
0.601984
0.601982
0.601982
0.60198
0.601978
0.601976
0.601974
0.601974
0.601972
0.60197
0.601968
0.601966
0.601966
0.601964
0.601962
0.60196
0.601958
0.601958
0.601956
0.601954
0.601952
0.60195
0.60195
0.601948
0.601946
0.601944
0.601942
0.601942
0.601939
0.601937
0.601935
0.601933
0.601933
0.601931
0.601929
0.601927
0.601925
0.601925
0.601922
0.60192
0.601918
0.601916
0.601916
0.601914
0.601912
0.60191
0.601908
0.601908
0.601906
0.601903
0.601901
0.601899
0.601899
0.601897
0.601895
0.601893
0.601891
0.601891
0.601889
0.601887
0.601884
0.601882
0.601882
0.60188
0.601878
0.601876
0.601874
0.601874
0.601872
0.601869
0.601867
0.601865
0.601865
0.601863
0.601861
0.601858
0.601856
0.601856
0.601854
0.601852
0.601849
0.601847
0.601847
0.601845
0.601843
0.60184
0.601838
0.601838
0.601836
0.601834
0.601831
0.601829
0.601829
0.601827
0.601825
0.601822
0.60182
0.60182
0.601818
0.601816
0.601814
0.601811
0.601811
0.601809
0.601807
0.601805
0.601802
0.601802
0.6018
0.601798
0.601796
0.601793
0.601793
0.601791
0.601789
0.601787
0.601784
0.601784
0.601782
0.60178
0.601777
0.601775
0.601775
0.601773
0.60177
0.601768
0.601765
0.601765
0.601763
0.601761
0.601758
0.601756
0.601756
0.601754
0.601751
0.601749
0.601746
0.601746
0.601744
0.601742
0.601739
0.601737
0.601737
0.601735
0.601732
0.60173
0.601728
0.601728
0.601725
0.601723
0.601721
0.601718
0.601718
0.601716
0.601713
0.601711
0.601709
0.601709
0.601706
0.601704
0.601702
0.601699
0.601699
0.601697
0.601694
0.601692
0.601689
0.601689
0.601687
0.601685
0.601682
0.60168
0.60168
0.601677
0.601675
0.601672
0.60167
0.60167
0.601667
0.601665
0.601662
0.60166
0.60166
0.601657
0.601655
0.601652
0.60165
0.60165
0.601647
0.601645
0.601642
0.60164
0.60164
0.601637
0.601635
0.601632
0.60163
0.60163
0.601628
0.601625
0.601623
0.60162
0.60162
0.601618
0.601615
0.601613
0.60161
0.60161
0.601608
0.601605
0.601603
0.6016
0.6016
0.601597
0.601595
0.601592
0.60159
0.60159
0.601587
0.601584
0.601582
0.601579
0.601579
0.601577
0.601574
0.601572
0.601569
0.601569
0.601566
0.601564
0.601561
0.601559
0.601559
0.601556
0.601554
0.601551
0.601548
0.601548
0.601546
0.601543
0.601541
0.601538
0.601538
0.601536
0.601533
0.60153
0.601528
0.601528
0.601525
0.601523
0.60152
0.601517
0.601517
0.601515
0.601512
0.601509
0.601507
0.601507
0.601504
0.601501
0.601499
0.601496
0.601496
0.601493
0.601491
0.601488
0.601485
0.601485
0.601483
0.60148
0.601477
0.601475
0.601475
0.601472
0.601469
0.601467
0.601464
0.601464
0.601461
0.601459
0.601456
0.601453
0.601453
0.601451
0.601448
0.601445
0.601443
0.601443
0.60144
0.601437
0.601435
0.601432
0.601432
0.601429
0.601427
0.601424
0.601421
0.601421
0.601418
0.601416
0.601413
0.60141
0.60141
0.601407
0.601405
0.601402
0.601399
0.601399
0.601396
0.601394
0.601391
0.601388
0.601388
0.601385
0.601383
0.60138
0.601377
0.601377
0.601374
0.601372
0.601369
0.601366
0.601366
0.601363
0.601361
0.601358
0.601355
0.601355
0.601352
0.60135
0.601347
0.601344
0.601344
0.601341
0.601338
0.601336
0.601333
0.601333
0.60133
0.601327
0.601324
0.601322
0.601322
0.601319
0.601316
0.601313
0.60131
0.60131
0.601307
0.601305
0.601302
0.601299
0.601299
0.601296
0.601293
0.60129
0.601288
0.601288
0.601285
0.601282
0.601279
0.601276
0.601276
0.601274
0.601271
0.601268
0.601265
0.601265
0.601262
0.601259
0.601257
0.601254
0.601254
0.601251
0.601248
0.601245
0.601242
0.601242
0.601239
0.601236
0.601234
0.601231
0.601231
0.601228
0.601225
0.601222
0.601219
0.601219
0.601216
0.601213
0.60121
0.601208
0.601208
0.601205
0.601202
0.601199
0.601196
0.601196
0.601193
0.60119
0.601187
0.601185
0.601185
0.601182
0.601179
0.601176
0.601173
0.601173
0.60117
0.601167
0.601164
0.601161
0.601161
0.601158
0.601155
0.601153
0.60115
0.60115
0.601147
0.601144
0.601141
0.601138
0.601138
0.601135
0.601132
0.601129
0.601126
0.601126
0.601123
0.60112
0.601117
0.601114
0.601114
0.601111
0.601108
0.601105
0.601102
0.601102
0.6011
0.601097
0.601094
0.601091
0.601091
0.601088
0.601085
0.601082
0.601079
0.601079
0.601076
0.601073
0.60107
0.601067
0.601067
0.601064
0.601061
0.601058
0.601055
0.601055
0.601052
0.601049
0.601046
0.601043
0.601043
0.60104
0.601037
0.601034
0.601031
0.601031
0.601028
0.601025
0.601022
0.601019
0.601019
0.601016
0.601013
0.60101
0.601007
0.601007
0.601004
0.601001
0.600998
0.600995
0.600995
0.600992
0.600989
0.600986
0.600983
0.600983
0.60098
0.600977
0.600974
0.600971
0.600971
0.600968
0.600965
0.600962
0.600959
0.600959
0.600956
0.600953
0.60095
0.600947
0.600947
0.600944
0.600941
0.600938
0.600935
0.600935
0.600932
0.600929
0.600926
0.600922
0.600922
0.600919
0.600916
0.600913
0.60091
0.60091
0.600907
0.600904
0.600901
0.600898
0.600898
0.600895
0.600892
0.600889
0.600886
0.600886
0.600883
0.60088
0.600877
0.600874
0.600874
0.600871
0.600868
0.600864
0.600861
0.600861
0.600858
0.600855
0.600852
0.600849
0.600849
0.600846
0.600843
0.60084
0.600837
0.600837
0.600834
0.600831
0.600828
0.600825
0.600825
0.600822
0.600818
0.600815
0.600812
0.600812
0.600809
0.600806
0.600803
0.6008
0.6008
0.600797
0.600794
0.600791
0.600788
0.600788
0.600784
0.600781
0.600778
0.600775
0.600775
0.600772
0.600769
0.600766
0.600763
0.600763
0.60076
0.600757
0.600754
0.60075
0.60075
0.600747
0.600744
0.600741
0.600738
0.600738
0.600735
0.600732
0.600729
0.600726
0.600726
0.600723
0.600719
0.600716
0.600713
0.600713
0.60071
0.600707
0.600704
0.600701
0.600701
0.600698
0.600694
0.600691
0.600688
0.600688
0.600685
0.600682
0.600679
0.600676
0.600676
0.600673
0.60067
0.600666
0.600663
0.600663
0.60066
0.600657
0.600654
0.600651
0.600651
0.600648
0.600645
0.600642
0.600638
0.600638
0.600635
0.600632
0.600629
0.600626
0.600626
0.600623
0.60062
0.600617
0.600613
0.600613
0.60061
0.600607
0.600604
0.600601
0.600601
0.600598
0.600595
0.600591
0.600588
0.600588
0.600585
0.600582
0.600579
0.600576
0.600576
0.600573
0.60057
0.600566
0.600563
0.600563
0.60056
0.600557
0.600554
0.600551
0.600551
0.600548
0.600544
0.600541
0.600538
0.600538
0.600535
0.600532
0.600529
0.600526
0.600526
0.600522
0.600519
0.600516
0.600513
0.600513
0.60051
0.600507
0.600504
0.6005
0.6005
0.600497
0.600494
0.600491
0.600488
0.600488
0.600485
0.600482
0.600479
0.600475
0.600475
0.600472
0.600469
0.600466
0.600463
0.600463
0.60046
0.600457
0.600453
0.60045
0.60045
0.600447
0.600444
0.600441
0.600438
0.600438
0.600435
0.600431
0.600428
0.600425
0.600425
0.600422
0.600419
0.600416
0.600413
0.600413
0.600409
0.600406
0.600403
0.6004
0.6004
0.600397
0.600394
0.600391
0.600387
0.600387
0.600384
0.600381
0.600378
0.600375
0.600375
0.600372
0.600369
0.600365
0.600362
0.600362
0.600359
0.600356
0.600353
0.60035
0.60035
0.600347
0.600343
0.60034
0.600337
0.600337
0.600334
0.600331
0.600328
0.600325
0.600325
0.600321
0.600318
0.600315
0.600312
0.600312
0.600309
0.600306
0.600303
0.600299
0.600299
0.600296
0.600293
0.60029
0.600287
0.600287
0.600284
0.600281
0.600278
0.600274
0.600274
0.600271
0.600268
0.600265
0.600262
0.600262
0.600259
0.600256
0.600252
0.600249
0.600249
0.600246
0.600243
0.60024
0.600237
0.600237
0.600234
0.600231
0.600227
0.600224
0.600224
0.600221
0.600218
0.600215
0.600212
0.600212
0.600209
0.600206
0.600202
0.600199
0.600199
0.600196
0.600193
0.60019
0.600187
0.600187
0.600184
0.600181
0.600177
0.600174
0.600174
0.600171
0.600168
0.600165
0.600162
0.600162
0.600159
0.600156
0.600153
0.600149
0.600149
0.600146
0.600143
0.60014
0.600137
0.600137
0.600134
0.600131
0.600128
0.600124
0.600124
0.600121
0.600118
0.600115
0.600112
0.600112
0.600109
0.600106
0.600103
0.6001
0.6001
0.600097
0.600093
0.60009
0.600087
0.600087
0.600084
0.600081
0.600078
0.600075
0.600075
0.600072
0.600069
0.600066
0.600062
0.600062
0.600059
0.600056
0.600053
0.60005
0.60005
0.600047
0.600044
0.600041
0.600038
0.600038
0.600035
0.600032
0.600028
0.600025
0.600025
0.600022
0.600019
0.600016
0.600013
0.600013
0.60001
0.600007
0.600004
0.600001
0.600001
0.599998
0.599995
0.599992
0.599988
0.599988
0.599985
0.599982
0.599979
0.599976
0.599976
0.599973
0.59997
0.599967
0.599964
0.599964
0.599961
0.599958
0.599955
0.599952
0.599952
0.599949
0.599946
0.599943
0.599939
0.599939
0.599936
0.599933
0.59993
0.599927
0.599927
0.599924
0.599921
0.599918
0.599915
0.599915
0.599912
0.599909
0.599906
0.599903
0.599903
0.5999
0.599897
0.599894
0.599891
0.599891
0.599888
0.599885
0.599882
0.599879
0.599879
0.599876
0.599873
0.59987
0.599867
0.599867
0.599864
0.599861
0.599857
0.599854
0.599854
0.599851
0.599848
0.599845
0.599842
0.599842
0.599839
0.599836
0.599833
0.59983
0.59983
0.599827
0.599824
0.599821
0.599818
0.599818
0.599815
0.599812
0.599809
0.599806
0.599806
0.599803
0.5998
0.599797
0.599794
0.599794
0.599791
0.599788
0.599785
0.599782
0.599782
0.599779
0.599776
0.599773
0.59977
0.59977
0.599768
0.599765
0.599762
0.599759
0.599759
0.599756
0.599753
0.59975
0.599747
0.599747
0.599744
0.599741
0.599738
0.599735
0.599735
0.599732
0.599729
0.599726
0.599723
0.599723
0.59972
0.599717
0.599714
0.599711
0.599711
0.599708
0.599705
0.599702
0.599699
0.599699
0.599696
0.599694
0.599691
0.599688
0.599688
0.599685
0.599682
0.599679
0.599676
0.599676
0.599673
0.59967
0.599667
0.599664
0.599664
0.599661
0.599658
0.599656
0.599653
0.599653
0.59965
0.599647
0.599644
0.599641
0.599641
0.599638
0.599635
0.599632
0.599629
0.599629
0.599626
0.599624
0.599621
0.599618
0.599618
0.599615
0.599612
0.599609
0.599606
0.599606
0.599603
0.5996
0.599598
0.599595
0.599595
0.599592
0.599589
0.599586
0.599583
0.599583
0.59958
0.599577
0.599575
0.599572
0.599572
0.599569
0.599566
0.599563
0.59956
0.59956
0.599557
0.599555
0.599552
0.599549
0.599549
0.599546
0.599543
0.59954
0.599538
0.599538
0.599535
0.599532
0.599529
0.599526
0.599526
0.599523
0.599521
0.599518
0.599515
0.599515
0.599512
0.599509
0.599506
0.599504
0.599504
0.599501
0.599498
0.599495
0.599492
0.599492
0.59949
0.599487
0.599484
0.599481
0.599481
0.599478
0.599476
0.599473
0.59947
0.59947
0.599467
0.599464
0.599462
0.599459
0.599459
0.599456
0.599453
0.599451
0.599448
0.599448
0.599445
0.599442
0.599439
0.599437
0.599437
0.599434
0.599431
0.599428
0.599426
0.599426
0.599423
0.59942
0.599417
0.599415
0.599415
0.599412
0.599409
0.599406
0.599404
0.599404
0.599401
0.599398
0.599396
0.599393
0.599393
0.59939
0.599387
0.599385
0.599382
0.599382
0.599379
0.599376
0.599374
0.599371
0.599371
0.599368
0.599366
0.599363
0.59936
0.59936
0.599358
0.599355
0.599352
0.599349
0.599349
0.599347
0.599344
0.599341
0.599339
0.599339
0.599336
0.599333
0.599331
0.599328
0.599328
0.599325
0.599323
0.59932
0.599317
0.599317
0.599315
0.599312
0.599309
0.599307
0.599307
0.599304
0.599301
0.599299
0.599296
0.599296
0.599294
0.599291
0.599288
0.599286
0.599286
0.599283
0.59928
0.599278
0.599275
0.599275
0.599273
0.59927
0.599267
0.599265
0.599265
0.599262
0.599259
0.599257
0.599254
0.599254
0.599252
0.599249
0.599246
0.599244
0.599244
0.599241
0.599239
0.599236
0.599234
0.599234
0.599231
0.599228
0.599226
0.599223
0.599223
0.599221
0.599218
0.599216
0.599213
0.599213
0.59921
0.599208
0.599205
0.599203
0.599203
0.5992
0.599198
0.599195
0.599193
0.599193
0.59919
0.599188
0.599185
0.599182
0.599182
0.59918
0.599177
0.599175
0.599172
0.599172
0.59917
0.599167
0.599165
0.599162
0.599162
0.59916
0.599157
0.599155
0.599152
0.599152
0.59915
0.599147
0.599145
0.599142
0.599142
0.59914
0.599137
0.599135
0.599132
0.599132
0.59913
0.599128
0.599125
0.599123
0.599123
0.59912
0.599118
0.599115
0.599113
0.599113
0.59911
0.599108
0.599105
0.599103
0.599103
0.599101
0.599098
0.599096
0.599093
0.599093
0.599091
0.599088
0.599086
0.599084
0.599084
0.599081
0.599079
0.599076
0.599074
0.599074
0.599072
0.599069
0.599067
0.599064
0.599064
0.599062
0.59906
0.599057
0.599055
0.599055
0.599053
0.59905
0.599048
0.599045
0.599045
0.599043
0.599041
0.599038
0.599036
0.599036
0.599034
0.599031
0.599029
0.599027
0.599027
0.599024
0.599022
0.59902
0.599017
0.599017
0.599015
0.599013
0.59901
0.599008
0.599008
0.599006
0.599003
0.599001
0.598999
0.598999
0.598996
0.598994
0.598992
0.598989
0.598989
0.598987
0.598985
0.598983
0.59898
0.59898
0.598978
0.598976
0.598973
0.598971
0.598971
0.598969
0.598967
0.598964
0.598962
0.598962
0.59896
0.598958
0.598955
0.598953
0.598953
0.598951
0.598949
0.598946
0.598944
0.598944
0.598942
0.59894
0.598937
0.598935
0.598935
0.598933
0.598931
0.598929
0.598926
0.598926
0.598924
0.598922
0.59892
0.598918
0.598918
0.598915
0.598913
0.598911
0.598909
0.598909
0.598907
0.598904
0.598902
0.5989
0.5989
0.598898
0.598896
0.598894
0.598891
0.598891
0.598889
0.598887
0.598885
0.598883
0.598883
0.598881
0.598879
0.598876
0.598874
0.598874
0.598872
0.59887
0.598868
0.598866
0.598866
0.598864
0.598861
0.598859
0.598857
0.598857
0.598855
0.598853
0.598851
0.598849
0.598849
0.598847
0.598845
0.598843
0.598841
0.598841
0.598838
0.598836
0.598834
0.598832
0.598832
0.59883
0.598828
0.598826
0.598824
0.598824
0.598822
0.59882
0.598818
0.598816
0.598816
0.598814
0.598812
0.59881
0.598808
0.598808
0.598806
0.598804
0.598802
0.5988
0.5988
0.598798
0.598796
0.598794
0.598792
0.598792
0.59879
0.598788
0.598786
0.598784
0.598784
0.598782
0.59878
0.598778
0.598776
0.598776
0.598774
0.598772
0.59877
0.598768
0.598768
0.598766
0.598764
0.598762
0.59876
0.59876
0.598758
0.598756
0.598754
0.598752
0.598752
0.59875
0.598748
0.598746
0.598745
0.598745
0.598743
0.598741
0.598739
0.598737
0.598737
0.598735
0.598733
0.598731
0.598729
0.598729
0.598727
0.598726
0.598724
0.598722
0.598722
0.59872
0.598718
0.598716
0.598714
0.598714
0.598712
0.598711
0.598709
0.598707
0.598707
0.598705
0.598703
0.598701
0.5987
0.5987
0.598698
0.598696
0.598694
0.598692
0.598692
0.59869
0.598689
0.598687
0.598685
0.598685
0.598683
0.598681
0.59868
0.598678
0.598678
0.598676
0.598674
0.598672
0.598671
0.598671
0.598669
0.598667
0.598665
0.598664
0.598664
0.598662
0.59866
0.598658
0.598657
0.598657
0.598655
0.598653
0.598651
0.59865
0.59865
0.598648
0.598646
0.598644
0.598643
0.598643
0.598641
0.598639
0.598638
0.598636
0.598636
0.598634
0.598632
0.598631
0.598629
0.598629
0.598627
0.598626
0.598624
0.598622
0.598622
0.598621
0.598619
0.598617
0.598616
0.598616
0.598614
0.598612
0.598611
0.598609
0.598609
0.598607
0.598606
0.598604
0.598602
0.598602
0.598601
0.598599
0.598598
0.598596
0.598596
0.598594
0.598593
0.598591
0.598589
0.598589
0.598588
0.598586
0.598585
0.598583
0.598583
0.598582
0.59858
0.598578
0.598577
0.598577
0.598575
0.598574
0.598572
0.598571
0.598571
0.598569
0.598567
0.598566
0.598564
0.598564
0.598563
0.598561
0.59856
0.598558
0.598558
0.598557
0.598555
0.598554
0.598552
0.598552
0.598551
0.598549
0.598548
0.598546
0.598546
0.598545
0.598543
0.598542
0.59854
0.59854
0.598539
0.598537
0.598536
0.598534
0.598534
0.598533
0.598531
0.59853
0.598528
0.598528
0.598527
0.598525
0.598524
0.598523
0.598523
0.598521
0.59852
0.598518
0.598517
0.598517
0.598515
0.598514
0.598513
0.598511
0.598511
0.59851
0.598508
0.598507
0.598506
0.598506
0.598504
0.598503
0.598501
0.5985
0.5985
0.598499
0.598497
0.598496
0.598495
0.598495
0.598493
0.598492
0.59849
0.598489
0.598489
0.598488
0.598486
0.598485
0.598484
0.598484
0.598482
0.598481
0.59848
0.598478
0.598478
0.598477
0.598476
0.598475
0.598473
0.598473
0.598472
0.598471
0.598469
0.598468
0.598468
0.598467
0.598465
0.598464
0.598463
0.598463
0.598462
0.59846
0.598459
0.598458
0.598458
0.598457
0.598455
0.598454
0.598453
0.598453
0.598452
0.59845
0.598449
0.598448
0.598448
0.598447
0.598446
0.598444
0.598443
0.598443
0.598442
0.598441
0.598439
0.598438
0.598438
0.598437
0.598436
0.598435
0.598434
0.598434
0.598432
0.598431
0.59843
0.598429
0.598429
0.598428
0.598427
0.598425
0.598424
0.598424
0.598423
0.598422
0.598421
0.59842
0.59842
0.598419
0.598417
0.598416
0.598415
0.598415
0.598414
0.598413
0.598412
0.598411
0.598411
0.59841
0.598409
0.598408
0.598406
0.598406
0.598405
0.598404
0.598403
0.598402
0.598402
0.598401
0.5984
0.598399
0.598398
0.598398
0.598397
0.598396
0.598395
0.598394
0.598394
0.598393
0.598392
0.598391
0.59839
0.59839
0.598389
0.598388
0.598387
0.598386
0.598386
0.598385
0.598384
0.598383
0.598382
0.598382
0.598381
0.59838
0.598379
0.598378
0.598378
0.598377
0.598376
0.598375
0.598374
0.598374
0.598373
0.598372
0.598371
0.59837
0.59837
0.598369
0.598368
0.598367
0.598366
0.598366
0.598365
0.598365
0.598364
0.598363
0.598363
0.598362
0.598361
0.59836
0.598359
0.598359
0.598358
0.598357
0.598356
0.598356
0.598356
0.598355
0.598354
0.598353
0.598352
0.598352
0.598351
0.59835
0.59835
0.598349
0.598349
0.598348
0.598347
0.598346
0.598345
0.598345
0.598345
0.598344
0.598343
0.598342
0.598342
0.598341
0.59834
0.59834
0.598339
0.598339
0.598338
0.598337
0.598337
0.598336
0.598336
0.598335
0.598334
0.598333
0.598333
0.598333
0.598332
0.598331
0.59833
0.59833
0.59833
0.598329
0.598328
0.598327
0.598327
0.598327
0.598326
0.598325
0.598325
0.598324
0.598324
0.598323
0.598322
0.598322
0.598321
0.598321
0.59832
0.59832
0.598319
0.598318
0.598318
0.598318
0.598317
0.598316
0.598316
0.598316
0.598315
0.598314
0.598314
0.598313
0.598313
0.598312
0.598312
0.598311
0.59831
0.59831
0.59831
0.598309
0.598308
0.598308
0.598308
0.598307
0.598307
0.598306
0.598305
0.598305
0.598305
0.598304
0.598304
0.598303
0.598303
0.598303
0.598302
0.598301
0.598301
0.598301
0.5983
0.5983
0.598299
0.598299
0.598299
0.598298
0.598297
0.598297
0.598296
0.598296
0.598296
0.598295
0.598295
0.598294
0.598294
0.598294
0.598293
0.598293
0.598292
0.598292
0.598292
0.598291
0.598291
0.59829
0.59829
0.59829
0.598289
0.598289
0.598288
0.598288
0.598288
0.598287
0.598287
0.598287
0.598287
0.598286
0.598286
0.598285
0.598285
0.598285
0.598284
0.598284
0.598284
0.598283
0.598283
0.598283
0.598282
0.598282
0.598281
0.598281
0.598281
0.598281
0.59828
0.59828
0.59828
0.59828
0.598279
0.598279
0.598278
0.598278
0.598278
0.598278
0.598277
0.598277
0.598277
0.598277
0.598276
0.598276
0.598276
0.598276
0.598275
0.598275
0.598275
0.598274
0.598274
0.598274
0.598274
0.598273
0.598273
0.598273
0.598273
0.598272
0.598272
0.598272
0.598272
0.598272
0.598271
0.598271
0.598271
0.598271
0.598271
0.59827
0.59827
0.59827
0.59827
0.59827
0.598269
0.598269
0.598269
0.598269
0.598269
0.598268
0.598268
0.598268
0.598268
0.598268
0.598267
0.598267
0.598267
0.598267
0.598267
0.598267
0.598266
0.598266
0.598266
0.598266
0.598266
0.598266
0.598266
0.598266
0.598265
0.598265
0.598265
0.598265
0.598265
0.598265
0.598265
0.598265
0.598264
0.598264
0.598264
0.598264
0.598264
0.598264
0.598264
0.598264
0.598264
0.598264
0.598263
0.598263
0.598263
0.598263
0.598263
0.598263
0.598263
0.598263
0.598263
0.598263
0.598263
0.598263
0.598263
0.598263
0.598263
0.598263
0.598263
0.598263
0.598263
0.598262
0.598262
0.598262
0.598262
0.598262
0.598262
0.598262
0.598262
0.598262
0.598262
0.598262
0.598262
0.598262
0.598262
0.598262
0.598262
0.598262
0.598262
0.598262
0.598262
0.598262
0.598262
0.598262
0.598262
0.598263
0.598263
0.598263
0.598263
0.598263
0.598263
0.598263
0.598263
0.598263
0.598263
0.598263
0.598263
0.598263
0.598263
0.598263
0.598263
0.598263
0.598264
0.598264
0.598264
0.598264
0.598264
0.598264
0.598264
0.598264
0.598264
0.598264
0.598265
0.598265
0.598265
0.598265
0.598265
0.598265
0.598265
0.598265
0.598265
0.598266
0.598266
0.598266
0.598266
0.598266
0.598266
0.598266
0.598266
0.598267
0.598267
0.598267
0.598267
0.598267
0.598267
0.598268
0.598268
0.598268
0.598268
0.598268
0.598269
0.598269
0.598269
0.598269
0.598269
0.598269
0.59827
0.59827
0.59827
0.59827
0.598271
0.598271
0.598271
0.598271
0.598271
0.598272
0.598272
0.598272
0.598272
0.598272
0.598273
0.598273
0.598273
0.598273
0.598274
0.598274
0.598274
0.598275
0.598275
0.598275
0.598275
0.598276
0.598276
0.598276
0.598276
0.598277
0.598277
0.598277
0.598277
0.598278
0.598278
0.598278
0.598279
0.598279
0.598279
0.59828
0.59828
0.59828
0.59828
0.598281
0.598281
0.598282
0.598282
0.598282
0.598282
0.598283
0.598283
0.598284
0.598284
0.598284
0.598284
0.598285
0.598285
0.598285
0.598286
0.598286
0.598287
0.598287
0.598287
0.598288
0.598288
0.598289
0.598289
0.598289
0.598289
0.59829
0.59829
0.598291
0.598291
0.598291
0.598292
0.598292
0.598293
0.598293
0.598293
0.598294
0.598294
0.598295
0.598295
0.598296
0.598296
0.598297
0.598297
0.598297
0.598298
0.598298
0.598299