<?xml version="1.0"?>
<VTKFile type="UnstructuredGrid" version="0.1" byte_order="LittleEndian">
<UnstructuredGrid>
<Piece NumberOfPoints="5000" NumberOfCells="4000">
<PointData Scalars="Reaction 0">
<DataArray type="Float32" Name="Reaction 0" format="ascii">
0.536905
0.536905
0.536905
0.536905
0.536905
0.536905
0.536906
0.536906
0.536906
0.536907
0.536907
0.536907
0.536907
0.536908
0.536908
0.536908
0.536909
0.536909
0.53691
0.536911
0.536911
0.536911
0.536912
0.536913
0.536914
0.536914
0.536914
0.536915
0.536916
0.536917
0.536917
0.536918
0.536919
0.53692
0.536922
0.536922
0.536923
0.536924
0.536925
0.536927
0.536927
0.536928
0.536929
0.536931
0.536932
0.536932
0.536934
0.536936
0.536937
0.536939
0.536939
0.536941
0.536942
0.536944
0.536946
0.536946
0.536948
0.53695
0.536952
0.536954
0.536954
0.536956
0.536958
0.53696
0.536962
0.536962
0.536964
0.536967
0.536969
0.536971
0.536971
0.536974
0.536976
0.536978
0.536981
0.536981
0.536983
0.536986
0.536989
0.536991
0.536991
0.536994
0.536997
0.537
0.537002
0.537002
0.537005
0.537008
0.537011
0.537014
0.537014
0.537017
0.53702
0.537024
0.537027
0.537027
0.53703
0.537033
0.537036
0.53704
0.53704
0.537043
0.537047
0.53705
0.537054
0.537054
0.537057
0.537061
0.537064
0.537068
0.537068
0.537072
0.537076
0.537079
0.537083
0.537083
0.537087
0.537091
0.537095
0.537099
0.537099
0.537103
0.537107
0.537111
0.537116
0.537116
0.53712
0.537124
0.537128
0.537133
0.537133
0.537137
0.537142
0.537146
0.537151
0.537151
0.537155
0.53716
0.537164
0.537169
0.537169
0.537174
0.537179
0.537183
0.537188
0.537188
0.537193
0.537198
0.537203
0.537208
0.537208
0.537213
0.537218
0.537224
0.537229
0.537229
0.537234
0.537239
0.537245
0.53725
0.53725
0.537255
0.537261
0.537266
0.537272
0.537272
0.537277
0.537283
0.537289
0.537294
0.537294
0.5373
0.537306
0.537312
0.537318
0.537318
0.537324
0.53733
0.537336
0.537342
0.537342
0.537348
0.537354
0.53736
0.537366
0.537366
0.537372
0.537379
0.537385
0.537392
0.537392
0.537398
0.537404
0.537411
0.537417
0.537417
0.537424
0.537431
0.537437
0.537444
0.537444
0.537451
0.537458
0.537465
0.537471
0.537471
0.537478
0.537485
0.537492
0.537499
0.537499
0.537506
0.537514
0.537521
0.537528
0.537528
0.537535
0.537543
0.53755
0.537557
0.537557
0.537565
0.537572
0.53758
0.537587
0.537587
0.537595
0.537603
0.53761
0.537618
0.537618
0.537626
0.537634
0.537642
0.537649
0.537649
0.537657
0.537665
0.537673
0.537681
0.537681
0.53769
0.537698
0.537706
0.537714
0.537714
0.537722
0.537731
0.537739
0.537748
0.537748
0.537756
0.537765
0.537773
0.537782
0.537782
0.53779
0.537799
0.537808
0.537816
0.537816
0.537825
0.537834
0.537843
0.537852
0.537852
0.537861
0.53787
0.537879
0.537888
0.537888
0.537897
0.537906
0.537915
0.537925
0.537925
0.537934
0.537943
0.537953
0.537962
0.537962
0.537972
0.537981
0.537991
0.538
0.538
0.53801
0.53802
0.538029
0.538039
0.538039
0.538049
0.538059
0.538069
0.538079
0.538079
0.538089
0.538099
0.538109
0.538119
0.538119
0.538129
0.538139
0.538149
0.53816
0.53816
0.53817
0.53818
0.538191
0.538201
0.538201
0.538212
0.538222
0.538233
0.538243
0.538243
0.538254
0.538265
0.538276
0.538286
0.538286
0.538297
0.538308
0.538319
0.53833
0.53833
0.538341
0.538352
0.538363
0.538374
0.538374
0.538385
0.538397
0.538408
0.538419
0.538419
0.53843
0.538442
0.538453
0.538465
0.538465
0.538476
0.538488
0.538499
0.538511
0.538511
0.538523
0.538534
0.538546
0.538558
0.538558
0.53857
0.538582
0.538594
0.538606
0.538606
0.538618
0.53863
0.538642
0.538654
0.538654
0.538666
0.538678
0.538691
0.538703
0.538703
0.538715
0.538728
0.53874
0.538753
0.538753
0.538765
0.538778
0.53879
0.538803
0.538803
0.538816
0.538829
0.538841
0.538854
0.538854
0.538867
0.53888
0.538893
0.538906
0.538906
0.538919
0.538932
0.538945
0.538958
0.538958
0.538972
0.538985
0.538998
0.539011
0.539011
0.539025
0.539038
0.539052
0.539065
0.539065
0.539079
0.539092
0.539106
0.53912
0.53912
0.539134
0.539147
0.539161
0.539175
0.539175
0.539189
0.539203
0.539217
0.539231
0.539231
0.539245
0.539259
0.539273
0.539287
0.539287
0.539302
0.539316
0.53933
0.539345
0.539345
0.539359
0.539373
0.539388
0.539403
0.539403
0.539417
0.539432
0.539446
0.539461
0.539461
0.539476
0.539491
0.539506
0.53952
0.53952
0.539535
0.53955
0.539565
0.53958
0.53958
0.539596
0.539611
0.539626
0.539641
0.539641
0.539656
0.539672
0.539687
0.539702
0.539702
0.539718
0.539733
0.539749
0.539764
0.539764
0.53978
0.539796
0.539811
0.539827
0.539827
0.539843
0.539859
0.539875
0.539891
0.539891
0.539907
0.539923
0.539939
0.539955
0.539955
0.539971
0.539987
0.540003
0.54002
0.54002
0.540036
0.540052
0.540069
0.540085
0.540085
0.540101
0.540118
0.540135
0.540151
0.540151
0.540168
0.540185
0.540201
0.540218
0.540218
0.540235
0.540252
0.540269
0.540286
0.540286
0.540303
0.54032
0.540337
0.540354
0.540354
0.540371
0.540388
0.540405
0.540423
0.540423
0.54044
0.540458
0.540475
0.540492
0.540492
0.54051
0.540527
0.540545
0.540563
0.540563
0.54058
0.540598
0.540616
0.540634
0.540634
0.540652
0.54067
0.540687
0.540705
0.540705
0.540723
0.540742
0.54076
0.540778
0.540778
0.540796
0.540814
0.540833
0.540851
0.540851
0.540869
0.540888
0.540906
0.540925
0.540925
0.540943
0.540962
0.540981
0.540999
0.540999
0.541018
0.541037
0.541056
0.541074
0.541074
0.541093
0.541112
0.541131
0.54115
0.54115
0.541169
0.541188
0.541208
0.541227
0.541227
0.541246
0.541265
0.541285
0.541304
0.541304
0.541323
0.541343
0.541362
0.541382
0.541382
0.541402
0.541421
0.541441
0.541461
0.541461
0.54148
0.5415
0.54152
0.54154
0.54154
0.54156
0.54158
0.5416
0.54162
0.54162
0.54164
0.54166
0.541681
0.541701
0.541701
0.541721
0.541741
0.541762
0.541782
0.541782
0.541803
0.541823
0.541844
0.541864
0.541864
0.541885
0.541906
0.541926
0.541947
0.541947
0.541968
0.541989
0.54201
0.542031
0.542031
0.542052
0.542073
0.542094
0.542115
0.542115
0.542136
0.542157
0.542179
0.5422
0.5422
0.542221
0.542243
0.542264
0.542286
0.542286
0.542307
0.542329
0.54235
0.542372
0.542372
0.542394
0.542415
0.542437
0.542459
0.542459
0.542481
0.542503
0.542525
0.542547
0.542547
0.542569
0.542591
0.542613
0.542635
0.542635
0.542657
0.54268
0.542702
0.542724
0.542724
0.542747
0.542769
0.542792
0.542814
0.542814
0.542837
0.542859
0.542882
0.542905
0.542905
0.542927
0.54295
0.542973
0.542996
0.542996
0.543019
0.543042
0.543065
0.543088
0.543088
0.543111
0.543134
0.543157
0.543181
0.543181
0.543204
0.543227
0.543251
0.543274
0.543274
0.543297
0.543321
0.543345
0.543368
0.543368
0.543392
0.543415
0.543439
0.543463
0.543463
0.543487
0.543511
0.543534
0.543558
0.543558
0.543582
0.543606
0.54363
0.543655
0.543655
0.543679
0.543703
0.543727
0.543752
0.543752
0.543776
0.5438
0.543825
0.543849
0.543849
0.543874
0.543898
0.543923
0.543947
0.543947
0.543972
0.543997
0.544022
0.544047
0.544047
0.544071
0.544096
0.544121
0.544146
0.544146
0.544171
0.544196
0.544222
0.544247
0.544247
0.544272
0.544297
0.544323
0.544348
0.544348
0.544373
0.544399
0.544424
0.54445
0.54445
0.544475
0.544501
0.544527
0.544552
0.544552
0.544578
0.544604
0.54463
0.544656
0.544656
0.544682
0.544708
0.544734
0.54476
0.54476
0.544786
0.544812
0.544838
0.544865
0.544865
0.544891
0.544917
0.544944
0.54497
0.54497
0.544997
0.545023
0.54505
0.545076
0.545076
0.545103
0.54513
0.545156
0.545183
0.545183
0.54521
0.545237
0.545264
0.545291
0.545291
0.545318
0.545345
0.545372
0.545399
0.545399
0.545426
0.545454
0.545481
0.545508
0.545508
0.545536
0.545563
0.54559
0.545618
0.545618
0.545645
0.545673
0.545701
0.545728
0.545728
0.545756
0.545784
0.545812
0.54584
0.54584
0.545868
0.545895
0.545923
0.545952
0.545952
0.54598
0.546008
0.546036
0.546064
0.546064
0.546092
0.546121
0.546149
0.546178
0.546178
0.546206
0.546235
0.546263
0.546292
0.546292
0.54632
0.546349
0.546378
0.546406
0.546406
0.546435
0.546464
0.546493
0.546522
0.546522
0.546551
0.54658
0.546609
0.546638
0.546638
0.546667
0.546697
0.546726
0.546755
0.546755
0.546785
0.546814
0.546844
0.546873
0.546873
0.546903
0.546932
0.546962
0.546991
0.546991
0.547021
0.547051
0.547081
0.547111
0.547111
0.547141
0.54717
0.5472
0.547231
0.547231
0.547261
0.547291
0.547321
0.547351
0.547351
0.547381
0.547412
0.547442
0.547473
0.547473
0.547503
0.547533
0.547564
0.547595
0.547595
0.547625
0.547656
0.547687
0.547717
0.547717
0.547748
0.547779
0.54781
0.547841
0.547841
0.547872
0.547903
0.547934
0.547965
0.547965
0.547996
0.548028
0.548059
0.54809
0.54809
0.548122
0.548153
0.548185
0.548216
0.548216
0.548248
0.548279
0.548311
0.548343
0.548343
0.548374
0.548406
0.548438
0.54847
0.54847
0.548502
0.548534
0.548566
0.548598
0.548598
0.54863
0.548662
0.548694
0.548726
0.548726
0.548759
0.548791
0.548823
0.548856
0.548856
0.548888
0.548921
0.548953
0.548986
0.548986
0.549019
0.549051
0.549084
0.549117
0.549117
0.54915
0.549183
0.549216
0.549249
0.549249
0.549282
0.549315
0.549348
0.549381
0.549381
0.549414
0.549447
0.549481
0.549514
0.549514
0.549547
0.549581
0.549614
0.549648
0.549648
0.549681
0.549715
0.549749
0.549783
0.549783
0.549816
0.54985
0.549884
0.549918
0.549918
0.549952
0.549986
0.55002
0.550054
0.550054
0.550088
0.550122
0.550157
0.550191
0.550191
0.550225
0.550259
0.550294
0.550328
0.550328
0.550363
0.550397
0.550432
0.550467
0.550467
0.550501
0.550536
0.550571
0.550606
0.550606
0.550641
0.550676
0.550711
0.550746
0.550746
0.550781
0.550816
0.550851
0.550886
0.550886
0.550921
0.550957
0.550992
0.551028
0.551028
0.551063
0.551098
0.551134
0.55117
0.55117
0.551205
0.551241
0.551277
0.551312
0.551312
0.551348
0.551384
0.55142
0.551456
0.551456
0.551492
0.551528
0.551564
0.5516
0.5516
0.551637
0.551673
0.551709
0.551745
0.551745
0.551782
0.551818
0.551855
0.551891
0.551891
0.551928
0.551964
0.552001
0.552038
0.552038
0.552075
0.552111
0.552148
0.552185
0.552185
0.552222
0.552259
0.552296
0.552333
0.552333
0.55237
0.552408
0.552445
0.552482
0.552482
0.552519
0.552557
0.552594
0.552632
0.552632
0.552669
0.552707
0.552744
0.552782
0.552782
0.55282
0.552858
0.552895
0.552933
0.552933
0.552971
0.553009
0.553047
0.553085
0.553085
0.553123
0.553161
0.5532
0.553238
0.553238
0.553276
0.553314
0.553353
0.553391
0.553391
0.55343
0.553468
0.553507
0.553545
0.553545
0.553584
0.553623
0.553662
0.5537
0.5537
0.553739
0.553778
0.553817
0.553856
0.553856
0.553895
0.553934
0.553973
0.554013
0.554013
0.554052
0.554091
0.554131
0.55417
0.55417
0.554209
0.554249
0.554288
0.554328
0.554328
0.554368
0.554407
0.554447
0.554487
0.554487
0.554527
0.554566
0.554606
0.554646
0.554646
0.554686
0.554726
0.554767
0.554807
0.554807
0.554847
0.554887
0.554927
0.554968
0.554968
0.555008
0.555049
0.555089
0.55513
0.55513
0.55517
0.555211
0.555252
0.555292
0.555292
0.555333
0.555374
0.555415
0.555456
0.555456
0.555497
0.555538
0.555579
0.55562
0.55562
0.555661
0.555702
0.555744
0.555785
0.555785
0.555826
0.555868
0.555909
0.555951
0.555951
0.555992
0.556034
0.556076
0.556117
0.556117
0.556159
0.556201
0.556243
0.556285
0.556285
0.556327
0.556369
0.556411
0.556453
0.556453
0.556495
0.556537
0.556579
0.556622
0.556622
0.556664
0.556706
0.556749
0.556791
0.556791
0.556834
0.556876
0.556919
0.556962
0.556962
0.557005
0.557047
0.55709
0.557133
0.557133
0.557176
0.557219
0.557262
0.557305
0.557305
0.557348
0.557391
0.557435
0.557478
0.557478
0.557521
0.557565
0.557608
0.557652
0.557652
0.557695
0.557739
0.557782
0.557826
0.557826
0.55787
0.557913
0.557957
0.558001
0.558001
0.558045
0.558089
0.558133
0.558177
0.558177
0.558221
0.558265
0.55831
0.558354
0.558354
0.558398
0.558443
0.558487
0.558531
0.558531
0.558576
0.558621
0.558665
0.55871
0.55871
0.558755
0.558799
0.558844
0.558889
0.558889
0.558934
0.558979
0.559024
0.559069
0.559069
0.559114
0.559159
0.559204
0.55925
0.55925
0.559295
0.55934
0.559386
0.559431
0.559431
0.559477
0.559522
0.559568
0.559614
0.559614
0.559659
0.559705
0.559751
0.559797
0.559797
0.559843
0.559889
0.559935
0.559981
0.559981
0.560026
0.56007
0.560115
0.560159
0.560159
0.560204
0.560249
0.560293
0.560338
0.560338
0.560383
0.560428
0.560473
0.560518
0.560518
0.560563
0.560608
0.560653
0.560698
0.560698
0.560743
0.560788
0.560834
0.560879
0.560879
0.560924
0.56097
0.561015
0.561061
0.561061
0.561106
0.561152
0.561197
0.561243
0.561243
0.561289
0.561335
0.561381
0.561426
0.561426
0.561472
0.561518
0.561563
0.561608
0.561608
0.561652
0.561696
0.56174
0.561784
0.561784
0.561828
0.561872
0.561916
0.56196
0.56196
0.562004
0.562048
0.562093
0.562137
0.562137
0.562181
0.562226
0.56227
0.562315
0.562315
0.562359
0.562404
0.562449
0.562493
0.562493
0.562538
0.562583
0.562628
0.562673
0.562673
0.562718
0.562762
0.562807
0.562852
0.562852
0.562898
0.562943
0.562988
0.563032
0.563032
0.563076
0.563119
0.563163
0.563205
0.563205
0.563248
0.563291
0.563335
0.563378
0.563378
0.563421
0.563464
0.563507
0.563551
0.563551
0.563594
0.563637
0.563681
0.563724
0.563724
0.563768
0.563811
0.563855
0.563899
0.563899
0.563942
0.563986
0.56403
0.564073
0.564073
0.564117
0.564161
0.564205
0.564249
0.564249
0.564293
0.564337
0.564381
0.564424
0.564424
0.564467
0.56451
0.564552
0.564594
0.564594
0.564636
0.564678
0.56472
0.564762
0.564762
0.564804
0.564846
0.564888
0.56493
0.56493
0.564972
0.565015
0.565057
0.565099
0.565099
0.565141
0.565184
0.565226
0.565269
0.565269
0.565311
0.565354
0.565396
0.565439
0.565439
0.565481
0.565524
0.565566
0.565609
0.565609
0.565652
0.565695
0.565737
0.565779
0.565779
0.565821
0.565862
0.565903
0.565944
0.565944
0.565985
0.566025
0.566066
0.566107
0.566107
0.566148
0.566189
0.56623
0.56627
0.56627
0.566311
0.566352
0.566393
0.566434
0.566434
0.566476
0.566517
0.566558
0.566599
0.566599
0.56664
0.566681
0.566723
0.566764
0.566764
0.566805
0.566847
0.566888
0.566929
0.566929
0.566971
0.567012
0.567053
0.567093
0.567093
0.567133
0.567173
0.567212
0.567252
0.567252
0.567291
0.567331
0.56737
0.56741
0.56741
0.567449
0.567489
0.567529
0.567568
0.567568
0.567608
0.567648
0.567687
0.567727
0.567727
0.567767
0.567807
0.567847
0.567886
0.567886
0.567926
0.567966
0.568006
0.568046
0.568046
0.568086
0.568126
0.568166
0.568206
0.568206
0.568246
0.568285
0.568324
0.568362
0.568362
0.5684
0.568439
0.568477
0.568515
0.568515
0.568553
0.568591
0.56863
0.568668
0.568668
0.568706
0.568744
0.568783
0.568821
0.568821
0.56886
0.568898
0.568936
0.568975
0.568975
0.569013
0.569052
0.56909
0.569129
0.569129
0.569168
0.569206
0.569245
0.569283
0.569283
0.569322
0.56936
0.569398
0.569436
0.569436
0.569473
0.56951
0.569547
0.569584
0.569584
0.569621
0.569658
0.569695
0.569732
0.569732
0.569768
0.569805
0.569842
0.569879
0.569879
0.569916
0.569953
0.56999
0.570027
0.570027
0.570065
0.570102
0.570139
0.570176
0.570176
0.570213
0.57025
0.570288
0.570325
0.570325
0.570362
0.570399
0.570436
0.570473
0.570473
0.570509
0.570545
0.570581
0.570616
0.570616
0.570652
0.570687
0.570723
0.570758
0.570758
0.570794
0.570829
0.570865
0.570901
0.570901
0.570936
0.570972
0.571008
0.571043
0.571043
0.571079
0.571115
0.57115
0.571186
0.571186
0.571222
0.571258
0.571294
0.571329
0.571329
0.571365
0.571401
0.571436
0.571472
0.571472
0.571507
0.571542
0.571576
0.571611
0.571611
0.571645
0.571679
0.571713
0.571747
0.571747
0.571781
0.571816
0.57185
0.571884
0.571884
0.571918
0.571953
0.571987
0.572021
0.572021
0.572056
0.57209
0.572124
0.572159
0.572159
0.572193
0.572227
0.572262
0.572296
0.572296
0.572331
0.572365
0.572399
0.572433
0.572433
0.572467
0.5725
0.572533
0.572566
0.572566
0.572599
0.572632
0.572665
0.572698
0.572698
0.572731
0.572764
0.572796
0.572829
0.572829
0.572862
0.572895
0.572928
0.572961
0.572961
0.572994
0.573027
0.57306
0.573093
0.573093
0.573126
0.573159
0.573192
0.573225
0.573225
0.573258
0.573291
0.573324
0.573356
0.573356
0.573388
0.57342
0.573452
0.573484
0.573484
0.573515
0.573547
0.573578
0.57361
0.57361
0.573641
0.573673
0.573704
0.573736
0.573736
0.573768
0.573799
0.573831
0.573862
0.573862
0.573894
0.573926
0.573957
0.573989
0.573989
0.574021
0.574053
0.574084
0.574116
0.574116
0.574147
0.574178
0.574209
0.57424
0.57424
0.574271
0.574301
0.574332
0.574362
0.574362
0.574392
0.574423
0.574453
0.574483
0.574483
0.574513
0.574544
0.574574
0.574604
0.574604
0.574634
0.574665
0.574695
0.574725
0.574725
0.574756
0.574786
0.574817
0.574847
0.574847
0.574877
0.574908
0.574938
0.574968
0.574968
0.574998
0.575027
0.575057
0.575086
0.575086
0.575115
0.575144
0.575173
0.575202
0.575202
0.575231
0.57526
0.575289
0.575318
0.575318
0.575347
0.575376
0.575405
0.575434
0.575434
0.575463
0.575492
0.575521
0.57555
0.57555
0.575579
0.575608
0.575637
0.575666
0.575666
0.575695
0.575724
0.575753
0.575781
0.575781
0.575809
0.575837
0.575865
0.575893
0.575893
0.575921
0.575948
0.575976
0.576004
0.576004
0.576032
0.576059
0.576087
0.576115
0.576115
0.576143
0.57617
0.576198
0.576226
0.576226
0.576254
0.576282
0.57631
0.576337
0.576337
0.576365
0.576393
0.57642
0.576448
0.576448
0.576475
0.576502
0.576529
0.576556
0.576556
0.576582
0.576609
0.576636
0.576662
0.576662
0.576689
0.576715
0.576742
0.576768
0.576768
0.576795
0.576821
0.576848
0.576874
0.576874
0.576901
0.576928
0.576954
0.576981
0.576981
0.577007
0.577034
0.57706
0.577087
0.577087
0.577113
0.577139
0.577165
0.577191
0.577191
0.577216
0.577242
0.577267
0.577293
0.577293
0.577318
0.577343
0.577369
0.577394
0.577394
0.57742
0.577445
0.57747
0.577496
0.577496
0.577521
0.577547
0.577572
0.577597
0.577597
0.577623
0.577648
0.577673
0.577699
0.577699
0.577724
0.577749
0.577774
0.577799
0.577799
0.577823
0.577848
0.577872
0.577896
0.577896
0.577921
0.577945
0.577969
0.577993
0.577993
0.578018
0.578042
0.578066
0.57809
0.57809
0.578115
0.578139
0.578163
0.578187
0.578187
0.578212
0.578236
0.57826
0.578284
0.578284
0.578308
0.578332
0.578356
0.57838
0.57838
0.578403
0.578427
0.57845
0.578473
0.578473
0.578496
0.57852
0.578543
0.578566
0.578566
0.578589
0.578612
0.578635
0.578659
0.578659
0.578682
0.578705
0.578728
0.578751
0.578751
0.578774
0.578797
0.578821
0.578844
0.578844
0.578867
0.578889
0.578912
0.578935
0.578935
0.578957
0.57898
0.579002
0.579024
0.579024
0.579046
0.579068
0.579091
0.579113
0.579113
0.579135
0.579157
0.579179
0.579201
0.579201
0.579223
0.579245
0.579267
0.579289
0.579289
0.579312
0.579334
0.579356
0.579378
0.579378
0.5794
0.579421
0.579443
0.579465
0.579465
0.579486
0.579507
0.579529
0.57955
0.57955
0.579571
0.579592
0.579613
0.579634
0.579634
0.579655
0.579676
0.579697
0.579719
0.579719
0.57974
0.579761
0.579782
0.579803
0.579803
0.579824
0.579845
0.579866
0.579887
0.579887
0.579908
0.579928
0.579949
0.579969
0.579969
0.57999
0.58001
0.58003
0.580051
0.580051
0.580071
0.580091
0.580111
0.580131
0.580131
0.580151
0.580171
0.580191
0.580212
0.580212
0.580232
0.580252
0.580272
0.580292
0.580292
0.580312
0.580332
0.580352
0.580372
0.580372
0.580392
0.580411
0.580431
0.58045
0.58045
0.58047
0.580489
0.580508
0.580528
0.580528
0.580547
0.580566
0.580585
0.580604
0.580604
0.580623
0.580643
0.580662
0.580681
0.580681
0.5807
0.580719
0.580738
0.580758
0.580758
0.580777
0.580796
0.580815
0.580833
0.580833
0.580852
0.580871
0.580889
0.580908
0.580908
0.580926
0.580945
0.580963
0.580981
0.580981
0.581
0.581018
0.581036
0.581054
0.581054
0.581073
0.581091
0.581109
0.581128
0.581128
0.581146
0.581164
0.581182
0.5812
0.5812
0.581218
0.581236
0.581254
0.581272
0.581272
0.58129
0.581308
0.581325
0.581343
0.581343
0.58136
0.581378
0.581395
0.581413
0.581413
0.58143
0.581447
0.581465
0.581482
0.581482
0.5815
0.581517
0.581535
0.581552
0.581552
0.581569
0.581587
0.581604
0.581621
0.581621
0.581638
0.581655
0.581672
0.581689
0.581689
0.581706
0.581722
0.581739
0.581756
0.581756
0.581772
0.581789
0.581806
0.581822
0.581822
0.581839
0.581856
0.581872
0.581889
0.581889
0.581905
0.581922
0.581938
0.581955
0.581955
0.581971
0.581988
0.582004
0.58202
0.58202
0.582036
0.582052
0.582068
0.582084
0.582084
0.5821
0.582116
0.582132
0.582148
0.582148
0.582164
0.58218
0.582195
0.582211
0.582211
0.582227
0.582243
0.582259
0.582274
0.582274
0.58229
0.582306
0.582322
0.582337
0.582337
0.582353
0.582368
0.582384
0.582399
0.582399
0.582414
0.582429
0.582444
0.58246
0.58246
0.582475
0.58249
0.582505
0.58252
0.58252
0.582535
0.58255
0.582565
0.58258
0.58258
0.582595
0.58261
0.582625
0.58264
0.58264
0.582655
0.58267
0.582685
0.5827
0.5827
0.582714
0.582729
0.582743
0.582758
0.582758
0.582772
0.582787
0.582801
0.582815
0.582815
0.58283
0.582844
0.582859
0.582873
0.582873
0.582887
0.582902
0.582916
0.58293
0.58293
0.582944
0.582959
0.582973
0.582987
0.582987
0.583001
0.583015
0.583029
0.583043
0.583043
0.583057
0.58307
0.583084
0.583098
0.583098
0.583112
0.583125
0.583139
0.583153
0.583153
0.583166
0.58318
0.583194
0.583207
0.583207
0.583221
0.583235
0.583248
0.583262
0.583262
0.583275
0.583288
0.583302
0.583315
0.583315
0.583328
0.583341
0.583355
0.583368
0.583368
0.583381
0.583394
0.583407
0.58342
0.58342
0.583433
0.583446
0.583459
0.583472
0.583472
0.583485
0.583498
0.583511
0.583524
0.583524
0.583537
0.58355
0.583562
0.583575
0.583575
0.583588
0.5836
0.583613
0.583625
0.583625
0.583638
0.58365
0.583663
0.583675
0.583675
0.583688
0.5837
0.583713
0.583725
0.583725
0.583738
0.58375
0.583762
0.583775
0.583775
0.583787
0.583799
0.583811
0.583824
0.583824
0.583836
0.583848
0.58386
0.583872
0.583872
0.583884
0.583896
0.583907
0.583919
0.583919
0.583931
0.583943
0.583955
0.583967
0.583967
0.583979
0.583991
0.584002
0.584014
0.584014
0.584026
0.584038
0.584049
0.584061
0.584061
0.584072
0.584084
0.584095
0.584107
0.584107
0.584118
0.58413
0.584141
0.584152
0.584152
0.584164
0.584175
0.584186
0.584198
0.584198
0.584209
0.58422
0.584232
0.584243
0.584243
0.584254
0.584265
0.584276
0.584287
0.584287
0.584298
0.584309
0.58432
0.584331
0.584331
0.584342
0.584353
0.584364
0.584375
0.584375
0.584385
0.584396
0.584407
0.584418
0.584418
0.584429
0.58444
0.58445
0.584461
0.584461
0.584472
0.584482
0.584493
0.584504
0.584504
0.584514
0.584525
0.584535
0.584545
0.584545
0.584556
0.584566
0.584577
0.584587
0.584587
0.584597
0.584608
0.584618
0.584628
0.584628
0.584639
0.584649
0.584659
0.584669
0.584669
0.584679
0.58469
0.5847
0.58471
0.58471
0.58472
0.58473
0.58474
0.58475
0.58475
0.58476
0.58477
0.58478
0.584789
0.584789
0.584799
0.584809
0.584819
0.584829
0.584829
0.584839
0.584849
0.584858
0.584868
0.584868
0.584878
0.584888
0.584897
0.584907
0.584907
0.584916
0.584926
0.584935
0.584945
0.584945
0.584954
0.584964
0.584973
0.584983
0.584983
0.584992
0.585002
0.585011
0.58502
0.58502
0.58503
0.585039
0.585049
0.585058
0.585058
0.585067
0.585076
0.585086
0.585095
0.585095
0.585104
0.585113
0.585122
0.585131
0.585131
0.58514
0.585149
0.585158
0.585167
0.585167
0.585176
0.585185
0.585194
0.585203
0.585203
0.585212
0.585221
0.58523
0.585239
0.585239
0.585248
0.585257
0.585265
0.585274
0.585274
0.585283
0.585292
0.5853
0.585309
0.585309
0.585318
0.585326
0.585335
0.585343
0.585343
0.585352
0.585361
0.585369
0.585378
0.585378
0.585386
0.585395
0.585403
0.585412
0.585412
0.58542
0.585429
0.585437
0.585445
0.585445
0.585454
0.585462
0.58547
0.585479
0.585479
0.585487
0.585495
0.585503
0.585512
0.585512
0.58552
0.585528
0.585536
0.585544
0.585544
0.585553
0.585561
0.585569
0.585577
0.585577
0.585585
0.585593
0.585601
0.585609
0.585609
0.585617
0.585625
0.585633
0.585641
0.585641
0.585648
0.585656
0.585664
0.585672
0.585672
0.58568
0.585688
0.585696
0.585703
0.585703
0.585711
0.585719
0.585727
0.585734
0.585734
0.585742
0.58575
0.585757
0.585765
0.585765
0.585773
0.58578
0.585788
0.585795
0.585795
0.585803
0.58581
0.585818
0.585825
0.585825
0.585833
0.58584
0.585848
0.585855
0.585855
0.585863
0.58587
0.585878
0.585885
0.585885
0.585892
0.5859
0.585907
0.585914
0.585914
0.585921
0.585929
0.585936
0.585943
0.585943
0.58595
0.585958
0.585965
0.585972
0.585972
0.585979
0.585986
0.585993
0.586001
0.586001
0.586008
0.586015
0.586022
0.586029
0.586029
0.586036
0.586043
0.58605
0.586057
0.586057
0.586064
0.586071
0.586077
0.586084
0.586084
0.586091
0.586098
0.586105
0.586112
0.586112
0.586119
0.586126
0.586132
0.586139
0.586139
0.586146
0.586153
0.586159
0.586166
0.586166
0.586173
0.58618
0.586186
0.586193
0.586193
0.5862
0.586206
0.586213
0.58622
0.58622
0.586226
0.586233
0.586239
0.586246
0.586246
0.586252
0.586259
0.586265
0.586272
0.586272
0.586278
0.586285
0.586291
0.586298
0.586298
0.586304
0.586311
0.586317
0.586323
0.586323
0.58633
0.586336
0.586342
0.586349
0.586349
0.586355
0.586361
0.586368
0.586374
0.586374
0.58638
0.586386
0.586393
0.586399
0.586399
0.586405
0.586411
0.586417
0.586424
0.586424
0.58643
0.586436
0.586442
0.586448
0.586448
0.586454
0.58646
0.586466
0.586472
0.586472
0.586478
0.586484
0.58649
0.586496
0.586496
0.586502
0.586508
0.586514
0.58652
0.58652
0.586526
0.586532
0.586538
0.586544
0.586544
0.58655
0.586556
0.586562
0.586568
0.586568
0.586573
0.586579
0.586585
0.586591
0.586591
0.586597
0.586602
0.586608
0.586614
0.586614
0.58662
0.586625
0.586631
0.586637
0.586637
0.586642
0.586648
0.586654
0.58666
0.58666
0.586665
0.586671
0.586676
0.586682
0.586682
0.586688
0.586693
0.586699
0.586704
0.586704
0.58671
0.586715
0.586721
0.586726
0.586726
0.586732
0.586737
0.586743
0.586748
0.586748
0.586754
0.586759
0.586765
0.58677
0.58677
0.586776
0.586781
0.586786
0.586792
0.586792
0.586797
0.586803
0.586808
0.586813
0.586813
0.586819
0.586824
0.586829
0.586835
0.586835
0.58684
0.586845
0.58685
0.586856
0.586856
0.586861
0.586866
0.586871
0.586877
0.586877
0.586882
0.586887
0.586892
0.586897
0.586897
0.586902
0.586908
0.586913
0.586918
0.586918
0.586923
0.586928
0.586933
0.586938
0.586938
0.586943
0.586948
0.586954
0.586959
0.586959
0.586964
0.586969
0.586974
0.586979
0.586979
0.586984
0.586989
0.586994
0.586999
0.586999
0.587004
0.587009
0.587013
0.587018
0.587018
0.587023
0.587028
0.587033
0.587038
0.587038
0.587043
0.587048
0.587053
0.587058
0.587058
0.587062
0.587067
0.587072
0.587077
0.587077
0.587082
0.587087
0.587091
0.587096
0.587096
0.587101
0.587106
0.58711
0.587115
0.587115
0.58712
0.587125
0.587129
0.587134
0.587134
0.587139
0.587143
0.587148
0.587153
0.587153
0.587157
0.587162
0.587167
0.587171
0.587171
0.587176
0.587181
0.587185
0.58719
0.58719
0.587195
0.587199
0.587204
0.587208
0.587208
0.587213
0.587217
0.587222
0.587227
0.587227
0.587231
0.587236
0.58724
0.587245
0.587245
0.587249
0.587254
0.587258
0.587263
0.587263
0.587267
0.587272
0.587276
0.58728
0.58728
0.587285
0.587289
0.587294
0.587298
0.587298
0.587303
0.587307
0.587311
0.587316
0.587316
0.58732
0.587325
0.587329
0.587333
0.587333
0.587338
0.587342
0.587346
0.587351
0.587351
0.587355
0.587359
0.587364
0.587368
0.587368
0.587372
0.587376
0.587381
0.587385
0.587385
0.587389
0.587393
0.587398
0.587402
0.587402
0.587406
0.58741
0.587415
0.587419
0.587419
0.587423
0.587427
0.587431
0.587436
0.587436
0.58744
0.587444
0.587448
0.587452
0.587452
0.587456
0.587461
0.587465
0.587469
0.587469
0.587473
0.587477
0.587481
0.587485
0.587485
0.587489
0.587494
0.587498
0.587502
0.587502
0.587506
0.58751
0.587514
0.587518
0.587518
0.587522
0.587526
0.58753
0.587534
0.587534
0.587538
0.587542
0.587546
0.58755
0.58755
0.587554
0.587558
0.587562
0.587566
0.587566
0.58757
0.587574
0.587578
0.587582
0.587582
0.587586
0.58759
0.587594
0.587598
0.587598
0.587602
0.587606
0.587609
0.587613
0.587613
0.587617
0.587621
0.587625
0.587629
0.587629
0.587633
0.587637
0.587641
0.587644
0.587644
0.587648
0.587652
0.587656
0.58766
0.58766
0.587664
0.587667
0.587671
0.587675
0.587675
0.587679
0.587683
0.587686
0.58769
0.58769
0.587694
0.587698
0.587702
0.587705
0.587705
0.587709
0.587713
0.587717
0.58772
0.58772
0.587724
0.587728
0.587732
0.587735
0.587735
0.587739
0.587743
0.587747
0.58775
0.58775
0.587754
0.587758
0.587761
0.587765
0.587765
0.587769
0.587772
0.587776
0.58778
0.58778
0.587784
0.587787
0.587791
0.587794
0.587794
0.587798
0.587802
0.587805
0.587809
0.587809
0.587813
0.587816
0.58782
0.587824
0.587824
0.587827
0.587831
0.587834
0.587838
0.587838
0.587842
0.587845
0.587849
0.587852
0.587852
0.587856
0.587859
0.587863
0.587867
0.587867
0.58787
0.587874
0.587877
0.587881
0.587881
0.587884
0.587888
0.587891
0.587895
0.587895
0.587899
0.587902
0.587906
0.587909
0.587909
0.587913
0.587916
0.58792
0.587923
0.587923
0.587927
0.58793
0.587934
0.587937
0.587937
0.587941
0.587944
0.587947
0.587951
0.587951
0.587954
0.587958
0.587961
0.587965
0.587965
0.587968
0.587972
0.587975
0.587979
0.587979
0.587982
0.587985
0.587989
0.587992
0.587992
0.587996
0.587999
0.588002
0.588006
0.588006
0.588009
0.588013
0.588016
0.588019
0.588019
0.588023
0.588026
0.58803
0.588033
0.588033
0.588036
0.58804
0.588043
0.588046
0.588046
0.58805
0.588053
0.588057
0.58806
0.58806
0.588063
0.588067
0.58807
0.588073
0.588073
0.588077
0.58808
0.588083
0.588087
0.588087
0.58809
0.588093
0.588097
0.5881
0.5881
0.588103
0.588106
0.58811
0.588113
0.588113
0.588116
0.58812
0.588123
0.588126
0.588126
0.58813
0.588133
0.588136
0.588139
0.588139
0.588143
0.588146
0.588149
0.588152
0.588152
0.588156
0.588159
0.588162
0.588165
0.588165
0.588169
0.588172
0.588175
0.588178
0.588178
0.588182
0.588185
0.588188
0.588191
0.588191
0.588195
0.588198
0.588201
0.588204
0.588204
0.588208
0.588211
0.588214
0.588217
0.588217
0.58822
0.588224
0.588227
0.58823
0.58823
0.588233
0.588236
0.58824
0.588243
0.588243
0.588246
0.588249
0.588252
0.588256
0.588256
0.588259
0.588262
0.588265
0.588268
0.588268
0.588271
0.588275
0.588278
0.588281
0.588281
0.588284
0.588287
0.58829
0.588294
0.588294
0.588297
0.5883
0.588303
0.588306
0.588306
0.588309
0.588312
0.588316
0.588319
0.588319
0.588322
0.588325
0.588328
0.588331
0.588331
0.588334
0.588337
0.588341
0.588344
0.588344
0.588347
0.58835
0.588353
0.588356
0.588356
0.588359
0.588362
0.588366
0.588369
0.588369
0.588372
0.588375
0.588378
0.588381
0.588381
0.588384
0.588387
0.58839
0.588393
0.588393
0.588397
0.5884
0.588403
0.588406
0.588406
0.588409
0.588412
0.588415
0.588418
0.588418
0.588421
0.588424
0.588427
0.58843
0.58843
0.588433
0.588437
0.58844
0.588443
0.588443
0.588446
0.588449
0.588452
0.588455
0.588455
0.588458
0.588461
0.588464
0.588467
0.588467
0.58847
0.588473
0.588476
0.588479
0.588479
0.588482
0.588485
0.588488
0.588492
0.588492
0.588495
0.588498
0.588501
0.588504
0.588504
0.588507
0.58851
0.588513
0.588516
0.588516
0.588519
0.588522
0.588525
0.588528
0.588528
0.588531
0.588534
0.588537
0.58854
0.58854
0.588543