<?xml version="1.0"?>
<VTKFile type="UnstructuredGrid" version="0.1" byte_order="LittleEndian">
<UnstructuredGrid>
<Piece NumberOfPoints="5000" NumberOfCells="4000">
<PointData Scalars="Reaction 0">
<DataArray type="Float32" Name="Reaction 0" format="ascii">
0.624734
0.624734
0.624734
0.624734
0.624734
0.624734
0.624734
0.624734
0.624734
0.624734
0.624734
0.624734
0.624734
0.624734
0.624734
0.624734
0.624734
0.624734
0.624734
0.624734
0.624734
0.624734
0.624734
0.624734
0.624734
0.624734
0.624734
0.624734
0.624734
0.624734
0.624734
0.624734
0.624734
0.624734
0.624734
0.624734
0.624734
0.624734
0.624734
0.624734
0.624734
0.624734
0.624734
0.624734
0.624734
0.624734
0.624734
0.624734
0.624734
0.624734
0.624734
0.624734
0.624734
0.624734
0.624734
0.624734
0.624734
0.624734
0.624734
0.624734
0.624734
0.624734
0.624734
0.624734
0.624734
0.624734
0.624734
0.624734
0.624734
0.624734
0.624734
0.624734
0.624734
0.624734
0.624734
0.624734
0.624734
0.624734
0.624734
0.624734
0.624734
0.624734
0.624734
0.624734
0.624734
0.624734
0.624734
0.624734
0.624734
0.624734
0.624734
0.624734
0.624734
0.624734
0.624734
0.624734
0.624734
0.624734
0.624734
0.624734
0.624734
0.624735
0.624735
0.624735
0.624735
0.624735
0.624735
0.624735
0.624735
0.624735
0.624735
0.624735
0.624735
0.624735
0.624735
0.624735
0.624735
0.624735
0.624735
0.624735
0.624735
0.624735
0.624735
0.624735
0.624735
0.624735
0.624735
0.624735
0.624735
0.624735
0.624735
0.624735
0.624735
0.624735
0.624735
0.624735
0.624735
0.624735
0.624735
0.624735
0.624735
0.624735
0.624735
0.624736
0.624736
0.624736
0.624736
0.624736
0.624736
0.624736
0.624736
0.624736
0.624736
0.624736
0.624736
0.624736
0.624736
0.624736
0.624736
0.624736
0.624736
0.624736
0.624736
0.624736
0.624736
0.624736
0.624736
0.624736
0.624736
0.624736
0.624736
0.624736
0.624736
0.624736
0.624737
0.624737
0.624737
0.624737
0.624737
0.624737
0.624737
0.624737
0.624737
0.624737
0.624737
0.624737
0.624737
0.624737
0.624737
0.624737
0.624737
0.624737
0.624737
0.624737
0.624737
0.624737
0.624737
0.624737
0.624737
0.624737
0.624737
0.624737
0.624738
0.624738
0.624738
0.624738
0.624738
0.624738
0.624738
0.624738
0.624738
0.624738
0.624738
0.624738
0.624738
0.624738
0.624738
0.624738
0.624738
0.624738
0.624738
0.624738
0.624738
0.624738
0.624738
0.624738
0.624738
0.624739
0.624739
0.624739
0.624739
0.624739
0.624739
0.624739
0.624739
0.624739
0.624739
0.624739
0.624739
0.624739
0.624739
0.624739
0.624739
0.624739
0.624739
0.624739
0.624739
0.624739
0.62474
0.62474
0.62474
0.62474
0.62474
0.62474
0.62474
0.62474
0.62474
0.62474
0.62474
0.62474
0.62474
0.62474
0.62474
0.62474
0.62474
0.62474
0.62474
0.62474
0.624741
0.624741
0.624741
0.624741
0.624741
0.624741
0.624741
0.624741
0.624741
0.624741
0.624741
0.624741
0.624741
0.624741
0.624741
0.624741
0.624741
0.624741
0.624741
0.624741
0.624742
0.624742
0.624742
0.624742
0.624742
0.624742
0.624742
0.624742
0.624742
0.624742
0.624742
0.624742
0.624742
0.624742
0.624742
0.624742
0.624742
0.624742
0.624743
0.624743
0.624743
0.624743
0.624743
0.624743
0.624743
0.624743
0.624743
0.624743
0.624743
0.624743
0.624743
0.624743
0.624743
0.624743
0.624744
0.624744
0.624744
0.624744
0.624744
0.624744
0.624744
0.624744
0.624744
0.624744
0.624744
0.624744
0.624744
0.624744
0.624744
0.624745
0.624745
0.624745
0.624745
0.624745
0.624745
0.624745
0.624745
0.624745
0.624745
0.624745
0.624745
0.624745
0.624745
0.624745
0.624746
0.624746
0.624746
0.624746
0.624746
0.624746
0.624746
0.624746
0.624746
0.624746
0.624746
0.624746
0.624746
0.624746
0.624746
0.624747
0.624747
0.624747
0.624747
0.624747
0.624747
0.624747
0.624747
0.624747
0.624747
0.624747
0.624747
0.624747
0.624747
0.624748
0.624748
0.624748
0.624748
0.624748
0.624748
0.624748
0.624748
0.624748
0.624748
0.624748
0.624748
0.624748
0.624749
0.624749
0.624749
0.624749
0.624749
0.624749
0.624749
0.624749
0.624749
0.624749
0.624749
0.624749
0.624749
0.624749
0.62475
0.62475
0.62475
0.62475
0.62475
0.62475
0.62475
0.62475
0.62475
0.62475
0.62475
0.62475
0.62475
0.624751
0.624751
0.624751
0.624751
0.624751
0.624751
0.624751
0.624751
0.624751
0.624751
0.624751
0.624751
0.624752
0.624752
0.624752
0.624752
0.624752
0.624752
0.624752
0.624752
0.624752
0.624752
0.624752
0.624752
0.624752
0.624753
0.624753
0.624753
0.624753
0.624753
0.624753
0.624753
0.624753
0.624753
0.624753
0.624753
0.624754
0.624754
0.624754
0.624754
0.624754
0.624754
0.624754
0.624754
0.624754
0.624754
0.624754
0.624755
0.624755
0.624755
0.624755
0.624755
0.624755
0.624755
0.624755
0.624755
0.624755
0.624755
0.624756
0.624756
0.624756
0.624756
0.624756
0.624756
0.624756
0.624756
0.624756
0.624756
0.624756
0.624756
0.624757
0.624757
0.624757
0.624757
0.624757
0.624757
0.624757
0.624757
0.624757
0.624757
0.624758
0.624758
0.624758
0.624758
0.624758
0.624758
0.624758
0.624758
0.624758
0.624758
0.624758
0.624759
0.624759
0.624759
0.624759
0.624759
0.624759
0.624759
0.624759
0.624759
0.624759
0.62476
0.62476
0.62476
0.62476
0.62476
0.62476
0.62476
0.62476
0.62476
0.62476
0.624761
0.624761
0.624761
0.624761
0.624761
0.624761
0.624761
0.624761
0.624761
0.624761
0.624762
0.624762
0.624762
0.624762
0.624762
0.624762
0.624762
0.624762
0.624762
0.624762
0.624763
0.624763
0.624763
0.624763
0.624763
0.624763
0.624763
0.624763
0.624763
0.624763
0.624764
0.624764
0.624764
0.624764
0.624764
0.624764
0.624764
0.624764
0.624764
0.624765
0.624765
0.624765
0.624765
0.624765
0.624765
0.624765
0.624765
0.624765
0.624765
0.624766
0.624766
0.624766
0.624766
0.624766
0.624766
0.624766
0.624766
0.624767
0.624767
0.624767
0.624767
0.624767
0.624767
0.624767
0.624767
0.624767
0.624767
0.624768
0.624768
0.624768
0.624768
0.624768
0.624768
0.624768
0.624768
0.624768
0.624769
0.624769
0.624769
0.624769
0.624769
0.624769
0.624769
0.624769
0.624769
0.62477
0.62477
0.62477
0.62477
0.62477
0.62477
0.62477
0.62477
0.62477
0.624771
0.624771
0.624771
0.624771
0.624771
0.624771
0.624771
0.624771
0.624772
0.624772
0.624772
0.624772
0.624772
0.624772
0.624772
0.624772
0.624772
0.624773
0.624773
0.624773
0.624773
0.624773
0.624773
0.624773
0.624773
0.624774
0.624774
0.624774
0.624774
0.624774
0.624774
0.624774
0.624774
0.624775
0.624775
0.624775
0.624775
0.624775
0.624775
0.624775
0.624775
0.624775
0.624776
0.624776
0.624776
0.624776
0.624776
0.624776
0.624776
0.624776
0.624777
0.624777
0.624777
0.624777
0.624777
0.624777
0.624777
0.624778
0.624778
0.624778
0.624778
0.624778
0.624778
0.624778
0.624778
0.624778
0.624779
0.624779
0.624779
0.624779
0.624779
0.624779
0.624779
0.62478
0.62478
0.62478
0.62478
0.62478
0.62478
0.62478
0.62478
0.624781
0.624781
0.624781
0.624781
0.624781
0.624781
0.624781
0.624781
0.624781
0.624782
0.624782
0.624782
0.624782
0.624782
0.624782
0.624782
0.624783
0.624783
0.624783
0.624783
0.624783
0.624783
0.624783
0.624783
0.624784
0.624784
0.624784
0.624784
0.624784
0.624784
0.624784
0.624785
0.624785
0.624785
0.624785
0.624785
0.624785
0.624785
0.624785
0.624786
0.624786
0.624786
0.624786
0.624786
0.624786
0.624786
0.624787
0.624787
0.624787
0.624787
0.624787
0.624787
0.624788
0.624788
0.624788
0.624788
0.624788
0.624788
0.624788
0.624788
0.624789
0.624789
0.624789
0.624789
0.624789
0.624789
0.624789
0.62479
0.62479
0.62479
0.62479
0.62479
0.62479
0.62479
0.62479
0.624791
0.624791
0.624791
0.624791
0.624791
0.624791
0.624792
0.624792
0.624792
0.624792
0.624792
0.624792
0.624792
0.624792
0.624793
0.624793
0.624793
0.624793
0.624793
0.624793
0.624793
0.624794
0.624794
0.624794
0.624794
0.624794
0.624794
0.624795
0.624795
0.624795
0.624795
0.624795
0.624795
0.624795
0.624795
0.624796
0.624796
0.624796
0.624796
0.624796
0.624796
0.624797
0.624797
0.624797
0.624797
0.624797
0.624797
0.624798
0.624798
0.624798
0.624798
0.624798
0.624798
0.624798
0.624798
0.624799
0.624799
0.624799
0.624799
0.624799
0.624799
0.6248
0.6248
0.6248
0.6248
0.6248
0.6248
0.624801
0.624801
0.624801
0.624801
0.624801
0.624801
0.624801
0.624801
0.624802
0.624802
0.624802
0.624802
0.624802
0.624802
0.624803
0.624803
0.624803
0.624803
0.624803
0.624803
0.624804
0.624804
0.624804
0.624804
0.624804
0.624804
0.624804
0.624805
0.624805
0.624805
0.624805
0.624805
0.624805
0.624806
0.624806
0.624806
0.624806
0.624806
0.624806
0.624807
0.624807
0.624807
0.624807
0.624807
0.624807
0.624808
0.624808
0.624808
0.624808
0.624808
0.624808
0.624808
0.624808
0.624809
0.624809
0.624809
0.624809
0.624809
0.624809
0.62481
0.62481
0.62481
0.62481
0.62481
0.624811
0.624811
0.624811
0.624811
0.624811
0.624811
0.624812
0.624812
0.624812
0.624812
0.624812
0.624812
0.624812
0.624813
0.624813
0.624813
0.624813
0.624813
0.624813
0.624814
0.624814
0.624814
0.624814
0.624814
0.624814
0.624815
0.624815
0.624815
0.624815
0.624815
0.624815
0.624816
0.624816
0.624816
0.624816
0.624816
0.624816
0.624816
0.624817
0.624817
0.624817
0.624817
0.624817
0.624818
0.624818
0.624818
0.624818
0.624818
0.624818
0.624819
0.624819
0.624819
0.624819
0.624819
0.624819
0.62482
0.62482
0.62482
0.62482
0.62482
0.62482
0.624821
0.624821
0.624821
0.624821
0.624821
0.624822
0.624822
0.624822
0.624822
0.624822
0.624822
0.624822
0.624823
0.624823
0.624823
0.624823
0.624823
0.624824
0.624824
0.624824
0.624824
0.624824
0.624824
0.624825
0.624825
0.624825
0.624825
0.624825
0.624825
0.624826
0.624826
0.624826
0.624826
0.624826
0.624827
0.624827
0.624827
0.624827
0.624827
0.624827
0.624828
0.624828
0.624828
0.624828
0.624828
0.624829
0.624829
0.624829
0.624829
0.624829
0.624829
0.624829
0.62483
0.62483
0.62483
0.62483
0.62483
0.624831
0.624831
0.624831
0.624831
0.624831
0.624832
0.624832
0.624832
0.624832
0.624832
0.624832
0.624833
0.624833
0.624833
0.624833
0.624833
0.624834
0.624834
0.624834
0.624834
0.624834
0.624834
0.624835
0.624835
0.624835
0.624835
0.624835
0.624836
0.624836
0.624836
0.624836
0.624836
0.624837
0.624837
0.624837
0.624837
0.624837
0.624837
0.624838
0.624838
0.624838
0.624838
0.624838
0.624839
0.624839
0.624839
0.624839
0.624839
0.62484
0.62484
0.62484
0.62484
0.62484
0.624841
0.624841
0.624841
0.624841
0.624841
0.624841
0.624841
0.624842
0.624842
0.624842
0.624842
0.624842
0.624843
0.624843
0.624843
0.624843
0.624843
0.624844
0.624844
0.624844
0.624844
0.624844
0.624845
0.624845
0.624845
0.624845
0.624845
0.624846
0.624846
0.624846
0.624846
0.624846
0.624847
0.624847
0.624847
0.624847
0.624847
0.624847
0.624848
0.624848
0.624848
0.624848
0.624848
0.624849
0.624849
0.624849
0.624849
0.624849
0.62485
0.62485
0.62485
0.62485
0.62485
0.624851
0.624851
0.624851
0.624851
0.624851
0.624852
0.624852
0.624852
0.624852
0.624852
0.624853
0.624853
0.624853
0.624853
0.624853
0.624854
0.624854
0.624854
0.624854
0.624854
0.624855
0.624855
0.624855
0.624855
0.624855
0.624856
0.624856
0.624856
0.624856
0.624856
0.624857
0.624857
0.624857
0.624857
0.624857
0.624858
0.624858
0.624858
0.624858
0.624858
0.624859
0.624859
0.624859
0.624859
0.624859
0.62486
0.62486
0.62486
0.62486
0.62486
0.624861
0.624861
0.624861
0.624861
0.624862
0.624862
0.624862
0.624862
0.624862
0.624863
0.624863
0.624863
0.624863
0.624863
0.624864
0.624864
0.624864
0.624864
0.624864
0.624865
0.624865
0.624865
0.624865
0.624865
0.624866
0.624866
0.624866
0.624866
0.624866
0.624867
0.624867
0.624867
0.624868
0.624868
0.624868
0.624868
0.624868
0.624869
0.624869
0.624869
0.624869
0.624869
0.62487
0.62487
0.62487
0.62487
0.62487
0.624871
0.624871
0.624871
0.624871
0.624871
0.624872
0.624872
0.624872
0.624872
0.624873
0.624873
0.624873
0.624873
0.624873
0.624874
0.624874
0.624874
0.624874
0.624874
0.624875
0.624875
0.624875
0.624875
0.624876
0.624876
0.624876
0.624876
0.624876
0.624877
0.624877
0.624877
0.624877
0.624877
0.624878
0.624878
0.624878
0.624878
0.624879
0.624879
0.624879
0.624879
0.624879
0.62488
0.62488
0.62488
0.62488
0.62488
0.624881
0.624881
0.624881
0.624882
0.624882
0.624882
0.624882
0.624882
0.624883
0.624883
0.624883
0.624883
0.624883
0.624884
0.624884
0.624884
0.624884
0.624885
0.624885
0.624885
0.624885
0.624885
0.624886
0.624886
0.624886
0.624886
0.624887
0.624887
0.624887
0.624887
0.624887
0.624888
0.624888
0.624888
0.624888
0.624889
0.624889
0.624889
0.624889
0.624889
0.62489
0.62489
0.62489
0.624891
0.624891
0.624891
0.624891
0.624891
0.624892
0.624892
0.624892
0.624892
0.624893
0.624893
0.624893
0.624893
0.624893
0.624894
0.624894
0.624894
0.624894
0.624895
0.624895
0.624895
0.624895
0.624895
0.624896
0.624896
0.624896
0.624896
0.624897
0.624897
0.624897
0.624898
0.624898
0.624898
0.624898
0.624898
0.624899
0.624899
0.624899
0.624899
0.6249
0.6249
0.6249
0.6249
0.6249
0.624901
0.624901
0.624901
0.624901
0.624902
0.624902
0.624902
0.624902
0.624903
0.624903
0.624903
0.624903
0.624903
0.624904
0.624904
0.624904
0.624905
0.624905
0.624905
0.624905
0.624906
0.624906
0.624906
0.624906
0.624906
0.624907
0.624907
0.624907
0.624907
0.624908
0.624908
0.624908
0.624908
0.624909
0.624909
0.624909
0.624909
0.624909
0.62491
0.62491
0.62491
0.624911
0.624911
0.624911
0.624911
0.624912
0.624912
0.624912
0.624912
0.624913
0.624913
0.624913
0.624913
0.624913
0.624914
0.624914
0.624914
0.624914
0.624915
0.624915
0.624915
0.624916
0.624916
0.624916
0.624916
0.624917
0.624917
0.624917
0.624917
0.624917
0.624918
0.624918
0.624918
0.624918
0.624919
0.624919
0.624919
0.624919
0.62492
0.62492
0.62492
0.624921
0.624921
0.624921
0.624921
0.624922
0.624922
0.624922
0.624922
0.624922
0.624923
0.624923
0.624923
0.624923
0.624924
0.624924
0.624924
0.624924
0.624925
0.624925
0.624925
0.624926
0.624926
0.624926
0.624926
0.624927
0.624927
0.624927
0.624927
0.624928
0.624928
0.624928
0.624928
0.624929
0.624929
0.624929
0.62493
0.62493
0.62493
0.62493
0.624931
0.624931
0.624931
0.624931
0.624931
0.624932
0.624932
0.624932
0.624932
0.624933
0.624933
0.624933
0.624933
0.624934
0.624934
0.624934
0.624935
0.624935
0.624935
0.624935
0.624936
0.624936
0.624936
0.624936
0.624937
0.624937
0.624937
0.624937
0.624938
0.624938
0.624938
0.624939
0.624939
0.624939
0.624939
0.62494
0.62494
0.62494
0.62494
0.624941
0.624941
0.624941
0.624941
0.624942
0.624942
0.624942
0.624943
0.624943
0.624943
0.624943
0.624944
0.624944
0.624944
0.624944
0.624945
0.624945
0.624945
0.624945
0.624946
0.624946
0.624946
0.624947
0.624947
0.624947
0.624947
0.624948
0.624948
0.624948
0.624949
0.624949
0.624949
0.62495
0.62495
0.62495
0.62495
0.624951
0.624951
0.624951
0.624951
0.624952
0.624952
0.624952
0.624952
0.624953
0.624953
0.624953
0.624954
0.624954
0.624954
0.624954
0.624955
0.624955
0.624955
0.624955
0.624956
0.624956
0.624956
0.624956
0.624957
0.624957
0.624958
0.624958
0.624958
0.624958
0.624959
0.624959
0.624959
0.624959
0.62496
0.62496
0.62496
0.624961
0.624961
0.624961
0.624961
0.624962
0.624962
0.624962
0.624962
0.624963
0.624963
0.624964
0.624964
0.624964
0.624964
0.624965
0.624965
0.624965
0.624965
0.624966
0.624966
0.624966
0.624966
0.624967
0.624967
0.624967
0.624968
0.624968
0.624968
0.624969
0.624969
0.624969
0.624969
0.62497
0.62497
0.62497
0.624971
0.624971
0.624971
0.624971
0.624972
0.624972
0.624972
0.624973
0.624973
0.624973
0.624974
0.624974
0.624974
0.624974
0.624975
0.624975
0.624975
0.624975
0.624976
0.624976
0.624977
0.624977
0.624977
0.624977
0.624978
0.624978
0.624978
0.624978
0.624979
0.624979
0.62498
0.62498
0.62498
0.62498
0.624981
0.624981
0.624981
0.624981
0.624982
0.624982
0.624983
0.624983
0.624983
0.624983
0.624984
0.624984
0.624984
0.624984
0.624985
0.624985
0.624986
0.624986
0.624986
0.624986
0.624987
0.624987
0.624987
0.624987
0.624988
0.624988
0.624989
0.624989
0.624989
0.624989
0.62499
0.62499
0.62499
0.624991
0.624991
0.624991
0.624992
0.624992
0.624992
0.624992
0.624993
0.624993
0.624993
0.624994
0.624994
0.624994
0.624995
0.624995
0.624995
0.624996
0.624996
0.624996
0.624996
0.624997
0.624997
0.624997
0.624998
0.624998
0.624998
0.624999
0.624999
0.624999
0.624999
0.625
0.625
0.625001
0.625001
0.625001
0.625001
0.625002
0.625002
0.625003
0.625003
0.625003
0.625003
0.625004
0.625004
0.625004
0.625005
0.625005
0.625005
0.625006
0.625006
0.625006
0.625007
0.625007
0.625007
0.625007
0.625008
0.625008
0.625009
0.625009
0.625009
0.625009
0.62501
0.62501
0.625011
0.625011
0.625011
0.625011
0.625012
0.625012
0.625012
0.625013
0.625013
0.625013
0.625014
0.625014
0.625014
0.625015
0.625015
0.625015
0.625015
0.625016
0.625016
0.625017
0.625017
0.625017
0.625018
0.625018
0.625018
0.625019
0.625019
0.625019
0.62502
0.62502
0.62502
0.62502
0.625021
0.625021
0.625022
0.625022
0.625022
0.625022
0.625023
0.625023
0.625024
0.625024
0.625024
0.625025
0.625025
0.625025
0.625025
0.625026
0.625026
0.625027
0.625027
0.625027
0.625027
0.625028
0.625028
0.625029
0.625029
0.625029
0.62503
0.62503
0.62503
0.62503
0.625031
0.625031
0.625032
0.625032
0.625032
0.625033
0.625033
0.625033
0.625034
0.625034
0.625034
0.625035
0.625035
0.625036
0.625036
0.625036
0.625036
0.625037
0.625037
0.625037
0.625038
0.625038
0.625039
0.625039
0.625039
0.625039
0.62504
0.62504
0.625041
0.625041
0.625041
0.625042
0.625042
0.625043
0.625043
0.625043
0.625043
0.625044
0.625044
0.625044
0.625045
0.625045
0.625046
0.625046
0.625046
0.625046
0.625047
0.625047
0.625048
0.625048
0.625048
0.625049
0.625049
0.62505
0.62505
0.62505
0.62505
0.625051
0.625051
0.625051
0.625052
0.625052
0.625053
0.625053
0.625053
0.625054
0.625054
0.625054
0.625055
0.625055
0.625055
0.625056
0.625056
0.625057
0.625057
0.625057
0.625058
0.625058
0.625059
0.625059
0.625059
0.625059
0.62506
0.62506
0.62506
0.625061
0.625061
0.625062
0.625062
0.625062
0.625063
0.625063
0.625064
0.625064
0.625064
0.625065
0.625065
0.625065
0.625066
0.625066
0.625066
0.625067
0.625067
0.625068
0.625068
0.625068
0.625069
0.625069
0.62507
0.62507
0.62507
0.625071
0.625071
0.625071
0.625071
0.625072
0.625072
0.625073
0.625073
0.625073
0.625074
0.625074
0.625075
0.625075
0.625075
0.625076
0.625076
0.625077
0.625077
0.625077
0.625078
0.625078
0.625079
0.625079
0.625079
0.625079
0.62508
0.62508
0.625081
0.625081
0.625081
0.625082
0.625082
0.625083
0.625083
0.625083
0.625084
0.625084
0.625085
0.625085
0.625085
0.625086
0.625086
0.625087
0.625087
0.625087
0.625088
0.625088
0.625089
0.625089
0.625089
0.62509
0.62509
0.625091
0.625091
0.625091
0.625092
0.625092
0.625093
0.625093
0.625093
0.625094
0.625094
0.625095
0.625095
0.625095
0.625096
0.625096
0.625097
0.625097
0.625097
0.625098
0.625098
0.625099
0.625099
0.625099
0.6251
0.6251
0.625101
0.625101
0.625101
0.625102
0.625102
0.625103
0.625103
0.625103
0.625104
0.625104
0.625105
0.625105
0.625105
0.625106
0.625106
0.625107
0.625107
0.625107
0.625108
0.625108
0.625109
0.625109
0.625109
0.62511
0.62511
0.625111
0.625111
0.625111
0.625112
0.625112
0.625113
0.625113
0.625113
0.625114
0.625114
0.625115
0.625115
0.625115
0.625116
0.625116
0.625117
0.625117
0.625117
0.625118
0.625118
0.625119
0.625119
0.625119
0.62512
0.62512
0.625121
0.625121
0.625122
0.625122
0.625123
0.625123
0.625123
0.625124
0.625124
0.625125
0.625125
0.625125
0.625126
0.625126
0.625127
0.625127
0.625127
0.625128
0.625128
0.625129
0.625129
0.625129
0.62513
0.625131
0.625131
0.625132
0.625132
0.625132
0.625133
0.625133
0.625134
0.625134
0.625134
0.625135
0.625135
0.625136
0.625136
0.625136
0.625137
0.625138
0.625138
0.625138
0.625139
0.625139
0.62514
0.62514
0.62514
0.625141
0.625141
0.625142
0.625142
0.625142
0.625143
0.625144
0.625144
0.625145
0.625145
0.625145
0.625146
0.625146
0.625147
0.625147
0.625147
0.625148
0.625149
0.625149
0.625149
0.62515
0.62515
0.625151
0.625151
0.625151
0.625152
0.625152
0.625153
0.625154
0.625154
0.625154
0.625155
0.625155
0.625156
0.625156
0.625156
0.625157
0.625157
0.625158
0.625158
0.625159
0.625159
0.62516
0.62516
0.62516
0.625161
0.625161
0.625162
0.625163
0.625163
0.625163
0.625164
0.625164
0.625165
0.625165
0.625165
0.625166
0.625167
0.625167
0.625167
0.625168
0.625168
0.625169
0.62517
0.62517
0.62517
0.625171
0.625171
0.625172
0.625172
0.625172
0.625173
0.625174
0.625174
0.625174
0.625175
0.625175
0.625176
0.625176
0.625176
0.625177
0.625178
0.625178
0.625179
0.625179
0.625179
0.62518
0.625181
0.625181
0.625181
0.625182
0.625182
0.625183
0.625184
0.625184
0.625184
0.625185
0.625185
0.625186
0.625186
0.625187
0.625187
0.625188
0.625188
0.625188
0.625189
0.62519
0.62519
0.625191
0.625191
0.625191
0.625192
0.625193
0.625193
0.625193
0.625194
0.625194
0.625195
0.625196
0.625196
0.625196
0.625197
0.625198
0.625198
0.625198
0.625199
0.625199
0.6252
0.625201
0.625201
0.625201
0.625202
0.625202
0.625203
0.625203
0.625204
0.625204
0.625205
0.625206
0.625206
0.625206
0.625207
0.625207
0.625208
0.625208
0.625209
0.625209
0.62521
0.625211
0.625211
0.625211
0.625212
0.625212
0.625213
0.625213
0.625214
0.625214
0.625215
0.625216
0.625216
0.625216
0.625217
0.625218
0.625218
0.625218
0.625219
0.625219
0.62522
0.625221
0.625221
0.625221
0.625222
0.625223
0.625223
0.625223
0.625224
0.625225
0.625225
0.625226
0.625226
0.625227
0.625227
0.625228
0.625228
0.625228
0.625229
0.62523
0.62523
0.625231
0.625231
0.625232
0.625232
0.625233
0.625234
0.625234
0.625234
0.625235
0.625236
0.625236
0.625236
0.625237
0.625238
0.625238
0.625239
0.625239
0.62524
0.62524
0.625241
0.625242
0.625242
0.625242
0.625243
0.625244
0.625244
0.625244
0.625245
0.625246
0.625246
0.625247
0.625247
0.625248
0.625248
0.625249
0.62525
0.62525
0.62525
0.625251
0.625252
0.625252
0.625252
0.625253
0.625254
0.625255
0.625255
0.625255
0.625256
0.625257
0.625257
0.625258
0.625258
0.625259
0.625259
0.62526
0.625261
0.625261
0.625261
0.625262
0.625263
0.625263
0.625263
0.625264
0.625265
0.625266
0.625266
0.625266
0.625267
0.625268
0.625268
0.625269
0.625269
0.62527
0.62527
0.625271
0.625272
0.625272
0.625273
0.625273
0.625274
0.625275
0.625275
0.625275
0.625276
0.625277
0.625278
0.625278
0.625278
0.625279
0.62528
0.62528
0.62528
0.625281
0.625282
0.625283
0.625283
0.625283
0.625284
0.625285
0.625285
0.625286
0.625286
0.625287
0.625288
0.625288
0.625289
0.625289
0.62529
0.62529
0.625291
0.625292
0.625292
0.625293
0.625293
0.625294
0.625295
0.625295
0.625296
0.625296
0.625297
0.625298
0.625298
0.625299
0.625299
0.6253
0.625301
0.625301
0.625301
0.625302
0.625303
0.625304
0.625304
0.625304
0.625305
0.625306
0.625307
0.625307
0.625307
0.625308
0.625309
0.62531
0.62531
0.62531
0.625311
0.625312
0.625313
0.625313
0.625313
0.625314
0.625315
0.625316
0.625316
0.625317
0.625317
0.625318
0.625319
0.625319
0.62532
0.62532
0.625321
0.625322
0.625322
0.625323
0.625323
0.625324
0.625325
0.625325
0.625326
0.625326
0.625327
0.625328
0.625328
0.625329
0.62533
0.62533
0.625331
0.625331
0.625332
0.625333
0.625333
0.625334
0.625334
0.625335
0.625336
0.625337
0.625337
0.625337
0.625338
0.625339
0.62534
0.625341
0.625341
0.625341
0.625342
0.625343
0.625344
0.625344
0.625345
0.625345
0.625346
0.625347
0.625347
0.625348
0.625349
0.625349
0.62535
0.62535
0.625351
0.625352
0.625353
0.625353
0.625353
0.625354
0.625355
0.625356
0.625357
0.625357
0.625357
0.625358
0.625359
0.62536
0.62536
0.625361
0.625361
0.625362
0.625363
0.625363
0.625364
0.625365
0.625366
0.625366
0.625366
0.625367
0.625368
0.625369
0.62537
0.62537
0.625371
0.625371
0.625372
0.625373
0.625373
0.625374
0.625375
0.625376
0.625376
0.625376
0.625377
0.625378
0.625379
0.62538
0.62538
0.625381
0.625381
0.625382
0.625383
0.625383
0.625384
0.625385
0.625386
0.625387
0.625387
0.625387
0.625388
0.625389
0.62539
0.62539
0.625391
0.625392
0.625392
0.625393
0.625393
0.625394
0.625395
0.625396
0.625397
0.625397
0.625398
0.625399
0.625399
0.6254
0.6254
0.625401
0.625402
0.625403
0.625404
0.625404
0.625405
0.625405
0.625406
0.625407
0.625407
0.625408
0.625409
0.62541
0.625411
0.625411
0.625412
0.625413
0.625413
0.625414
0.625414
0.625415
0.625416
0.625417
0.625418
0.625418
0.625419
0.62542
0.625421
0.625421
0.625421
0.625422
0.625423
0.625424
0.625425
0.625425
0.625426
0.625427
0.625428
0.625429
0.625429
0.62543
0.62543
0.625431
0.625432
0.625432
0.625433
0.625434
0.625435
0.625436
0.625436
0.625437
0.625438
0.625439
0.62544
0.62544
0.62544
0.625441
0.625442
0.625443
0.625443
0.625444
0.625445
0.625446
0.625447
0.625447
0.625448
0.625449
0.62545
0.625451
0.625451
0.625452
0.625453
0.625453
0.625454
0.625454
0.625455
0.625456
0.625457
0.625458
0.625458
0.625459
0.62546
0.625461
0.625462
0.625462
0.625463
0.625464
0.625465
0.625466
0.625466
0.625467
0.625468
0.625469
0.62547
0.62547
0.625471
0.625472
0.625472
0.625473
0.625473
0.625474
0.625475
0.625476
0.625477
0.625477
0.625478
0.625479
0.62548
0.625481
0.625481
0.625482
0.625483
0.625484
0.625485
0.625485
0.625486
0.625487
0.625488
0.625489
0.625489
0.62549
0.625491
0.625492
0.625493
0.625493
0.625494
0.625495
0.625496
0.625497
0.625497
0.625498
0.625499
0.6255
0.625501
0.625501
0.625502
0.625503
0.625504
0.625505
0.625505
0.625506
0.625507
0.625508
0.625509
0.625509
0.62551
0.625511
0.625512
0.625513
0.625513
0.625514
0.625515
0.625516
0.625517
0.625517
0.625518
0.625519
0.62552
0.625521
0.625521
0.625522
0.625523
0.625524
0.625525
0.625525
0.625526
0.625527
0.625528
0.625529
0.625529
0.62553
0.625531
0.625533
0.625534
0.625534
0.625535
0.625536
0.625537
0.625538
0.625538
0.625539
0.62554
0.625541
0.625542
0.625542
0.625543
0.625544
0.625545
0.625546
0.625546
0.625547
0.625548
0.625549
0.62555
0.62555
0.625551
0.625553
0.625554
0.625555
0.625555
0.625556
0.625557
0.625558
0.625559
0.625559
0.62556
0.625561
0.625562
0.625563
0.625563
0.625564
0.625565
0.625567
0.625568
0.625568
0.625569
0.62557
0.625571
0.625572
0.625572
0.625573
0.625574
0.625575
0.625576
0.625576
0.625577
0.625579
0.62558
0.625581
0.625581
0.625582
0.625583
0.625584
0.625585
0.625585
0.625586
0.625587
0.625589
0.62559
0.62559
0.625591
0.625592
0.625593
0.625594
0.625594
0.625595
0.625596
0.625598
0.625599
0.625599
0.6256
0.625601
0.625602
0.625603
0.625603
0.625604
0.625605
0.625607
0.625608
0.625608
0.625609
0.62561
0.625611
0.625612
0.625612
0.625613
0.625615
0.625616
0.625617
0.625617
0.625618
0.625619
0.62562
0.625621
0.625621
0.625623
0.625624
0.625625
0.625626
0.625626
0.625627
0.625628
0.62563
0.625631
0.625631
0.625632
0.625633
0.625634
0.625636
0.625636
0.625637
0.625638
0.625639
0.62564
0.62564
0.625641
0.625643
0.625644
0.625645
0.625645
0.625646
0.625647
0.625649
0.62565
0.62565
0.625651
0.625652
0.625653
0.625655
0.625655
0.625656
0.625657
0.625658
0.625659
0.625659
0.625661
0.625662
0.625663
0.625664
0.625664
0.625665
0.625667
0.625668
0.625669
0.625669
0.62567
0.625672
0.625673
0.625674
0.625674
0.625675
0.625676
0.625678
0.625679
0.625679
0.62568
0.625681
0.625683
0.625684
0.625684
0.625685
0.625686
0.625688
0.625689
0.625689
0.62569
0.625691
0.625693
0.625694
0.625694
0.625695
0.625696
0.625698
0.625699
0.625699
0.6257
0.625701
0.625703
0.625704
0.625704
0.625705
0.625706
0.625708
0.625709
0.625709
0.62571
0.625712
0.625713
0.625714
0.625714
0.625715
0.625717
0.625718
0.625719
0.625719
0.625721
0.625722
0.625723
0.625724
0.625724
0.625726
0.625727
0.625728
0.62573
0.62573
0.625731
0.625732
0.625734
0.625735
0.625735
0.625736
0.625737
0.625739
0.62574
0.62574
0.625741
0.625743
0.625744
0.625745
0.625745
0.625747
0.625748
0.625749
0.625751
0.625751
0.625752
0.625753
0.625755
0.625756
0.625756
0.625757
0.625759
0.62576
0.625761
0.625761
0.625763
0.625764
0.625765
0.625767
0.625767
0.625768
0.625769
0.625771
0.625772
0.625772
0.625774
0.625775
0.625776
0.625778
0.625778
0.625779
0.62578
0.625782
0.625783
0.625783
0.625784
0.625786
0.625787
0.625789
0.625789
0.62579
0.625791
0.625793
0.625794
0.625794
0.625796
0.625797
0.625798
0.6258
0.6258
0.625801
0.625802
0.625804
0.625805
0.625805
0.625807
0.625808
0.625809
0.625811
0.625811
0.625812
0.625814
0.625815
0.625817
0.625817
0.625818
0.625819
0.625821
0.625822
0.625822
0.625824
0.625825
0.625827
0.625828
0.625828
0.625829
0.625831
0.625832
0.625834
0.625834
0.625835
0.625837
0.625838
0.625839
0.625839
0.625841
0.625842
0.625844
0.625845
0.625845
0.625847
0.625848
0.62585
0.625851
0.625851
0.625853
0.625854
0.625855
0.625857
0.625857
0.625858
0.62586
0.625861
0.625863
0.625863
0.625864
0.625866
0.625867
0.625869
0.625869
0.62587
0.625872
0.625873
0.625875
0.625875
0.625876
0.625878
0.625879
0.625881
0.625881
0.625882
0.625884
0.625885
0.625887
0.625887
0.625888
0.62589
0.625891
0.625893
0.625893
0.625894
0.625896
0.625897
0.625899
0.625899
0.6259
0.625902
0.625903
0.625905
0.625905
0.625906
0.625908
0.62591
0.625911
0.625911
0.625913
0.625914
0.625916
0.625917
0.625917
0.625919
0.62592
0.625922
0.625924
0.625924
0.625925
0.625927
0.625928
0.62593
0.62593
0.625931
0.625933
0.625934
0.625936
0.625936
0.625938
0.625939
0.625941
0.625942
0.625942
0.625944
0.625946
0.625947
0.625949
0.625949
0.62595
0.625952
0.625953
0.625955
0.625955
0.625957
0.625958
0.62596
0.625961
0.625961
0.625963
0.625965
0.625966
0.625968
0.625968
0.62597
0.625971
0.625973
0.625974
0.625974
0.625976
0.625978
0.625979
0.625981
0.625981
0.625983
0.625984
0.625986
0.625987
0.625987
0.625989
0.625991
0.625992
0.625994
0.625994
0.625996
0.625997
0.625999
0.626001
0.626001
0.626002
0.626004
0.626006
0.626007
0.626007
0.626009
0.626011
0.626012
0.626014
0.626014
0.626016
0.626017
0.626019
0.626021
0.626021
0.626022
0.626024
0.626026
0.626027
0.626027
0.626029
0.626031
0.626033
0.626034
0.626034
0.626036
0.626038
0.626039
0.626041
0.626041
0.626043
0.626045
0.626046
0.626048
0.626048
0.62605
0.626051
0.626053
0.626055
0.626055
0.626057
0.626058
0.62606
0.626062
0.626062
0.626064
0.626065
0.626067
0.626069
0.626069
0.62607
0.626072
0.626074
0.626076
0.626076
0.626077
0.626079
0.626081
0.626083
0.626083
0.626085
0.626086
0.626088
0.62609
0.62609
0.626092
0.626093
0.626095
0.626097
0.626097
0.626099
0.626101
0.626102
0.626104
0.626104
0.626106
0.626108
0.62611
0.626111
0.626111
0.626113
0.626115
0.626117
0.626119
0.626119
0.62612
0.626122
0.626124
0.626126
0.626126
0.626128
0.626129
0.626131
0.626133
0.626133
0.626135
0.626137
0.626139
0.62614
0.62614
0.626142
0.626144
0.626146
0.626148
0.626148
0.62615
0.626152
0.626153
0.626155
0.626155
0.626157
0.626159
0.626161
0.626163
0.626163
0.626165
0.626166
0.626168
0.62617
0.62617
0.626172
0.626174
0.626176
0.626178
0.626178
0.62618
0.626182
0.626183
0.626185
0.626185
0.626187
0.626189
0.626191
0.626193
0.626193
0.626195
0.626197
0.626199
0.626201
0.626201
0.626203
0.626204
0.626206
0.626208
0.626208
0.62621