<?xml version="1.0"?>
<VTKFile type="UnstructuredGrid" version="0.1" byte_order="LittleEndian">
<UnstructuredGrid>
<Piece NumberOfPoints="5000" NumberOfCells="4000">
<PointData Scalars="Reaction 0">
<DataArray type="Float32" Name="Reaction 0" format="ascii">
0.448578
0.448578
0.448578
0.448578
0.448579
0.448579
0.448579
0.448579
0.448579
0.448579
0.448579
0.44858
0.44858
0.44858
0.44858
0.44858
0.448581
0.448581
0.448582
0.448582
0.448582
0.448583
0.448583
0.448584
0.448584
0.448584
0.448585
0.448585
0.448586
0.448587
0.448587
0.448588
0.448588
0.448589
0.44859
0.44859
0.448591
0.448592
0.448592
0.448593
0.448593
0.448594
0.448595
0.448596
0.448597
0.448597
0.448598
0.4486
0.448601
0.448602
0.448602
0.448603
0.448604
0.448606
0.448607
0.448607
0.448608
0.448609
0.448611
0.448612
0.448612
0.448614
0.448615
0.448617
0.448618
0.448618
0.44862
0.448621
0.448623
0.448624
0.448624
0.448626
0.448628
0.44863
0.448631
0.448631
0.448633
0.448635
0.448637
0.448639
0.448639
0.44864
0.448642
0.448644
0.448646
0.448646
0.448648
0.44865
0.448652
0.448655
0.448655
0.448657
0.448659
0.448661
0.448663
0.448663
0.448666
0.448668
0.44867
0.448672
0.448672
0.448675
0.448677
0.44868
0.448682
0.448682
0.448685
0.448687
0.44869
0.448692
0.448692
0.448695
0.448697
0.4487
0.448703
0.448703
0.448705
0.448708
0.448711
0.448714
0.448714
0.448717
0.44872
0.448722
0.448725
0.448725
0.448728
0.448731
0.448734
0.448737
0.448737
0.44874
0.448744
0.448747
0.44875
0.44875
0.448753
0.448756
0.448759
0.448763
0.448763
0.448766
0.448769
0.448773
0.448776
0.448776
0.44878
0.448783
0.448787
0.44879
0.44879
0.448794
0.448797
0.448801
0.448804
0.448804
0.448808
0.448812
0.448815
0.448819
0.448819
0.448823
0.448827
0.448831
0.448834
0.448834
0.448838
0.448842
0.448846
0.44885
0.44885
0.448854
0.448858
0.448862
0.448866
0.448866
0.448871
0.448875
0.448879
0.448883
0.448883
0.448887
0.448892
0.448896
0.4489
0.4489
0.448905
0.448909
0.448914
0.448918
0.448918
0.448922
0.448927
0.448932
0.448936
0.448936
0.448941
0.448945
0.44895
0.448955
0.448955
0.448959
0.448964
0.448969
0.448974
0.448974
0.448979
0.448983
0.448988
0.448993
0.448993
0.448998
0.449003
0.449008
0.449013
0.449013
0.449018
0.449023
0.449029
0.449034
0.449034
0.449039
0.449044
0.449049
0.449055
0.449055
0.44906
0.449065
0.449071
0.449076
0.449076
0.449081
0.449087
0.449092
0.449098
0.449098
0.449103
0.449109
0.449115
0.44912
0.44912
0.449126
0.449132
0.449137
0.449143
0.449143
0.449149
0.449155
0.449161
0.449166
0.449166
0.449172
0.449178
0.449184
0.44919
0.44919
0.449196
0.449202
0.449208
0.449214
0.449214
0.449221
0.449227
0.449233
0.449239
0.449239
0.449245
0.449252
0.449258
0.449264
0.449264
0.449271
0.449277
0.449283
0.44929
0.44929
0.449296
0.449303
0.449309
0.449316
0.449316
0.449323
0.449329
0.449336
0.449343
0.449343
0.449349
0.449356
0.449363
0.44937
0.44937
0.449376
0.449383
0.44939
0.449397
0.449397
0.449404
0.449411
0.449418
0.449425
0.449425
0.449432
0.449439
0.449446
0.449454
0.449454
0.449461
0.449468
0.449475
0.449483
0.449483
0.44949
0.449497
0.449505
0.449512
0.449512
0.449519
0.449527
0.449534
0.449542
0.449542
0.449549
0.449557
0.449565
0.449572
0.449572
0.44958
0.449588
0.449595
0.449603
0.449603
0.449611
0.449619
0.449627
0.449634
0.449634
0.449642
0.44965
0.449658
0.449666
0.449666
0.449674
0.449682
0.44969
0.449698
0.449698
0.449707
0.449715
0.449723
0.449731
0.449731
0.449739
0.449748
0.449756
0.449764
0.449764
0.449773
0.449781
0.449789
0.449798
0.449798
0.449806
0.449815
0.449823
0.449832
0.449832
0.449841
0.449849
0.449858
0.449867
0.449867
0.449875
0.449884
0.449893
0.449902
0.449902
0.449911
0.449919
0.449928
0.449937
0.449937
0.449946
0.449955
0.449964
0.449973
0.449973
0.449982
0.449991
0.450001
0.45001
0.45001
0.450019
0.450028
0.450037
0.450047
0.450047
0.450056
0.450065
0.450075
0.450084
0.450084
0.450094
0.450103
0.450113
0.450122
0.450122
0.450132
0.450141
0.450151
0.45016
0.45016
0.45017
0.45018
0.450189
0.450199
0.450199
0.450209
0.450219
0.450229
0.450239
0.450239
0.450248
0.450258
0.450268
0.450278
0.450278
0.450288
0.450298
0.450308
0.450319
0.450319
0.450329
0.450339
0.450349
0.450359
0.450359
0.45037
0.45038
0.45039
0.450401
0.450401
0.450411
0.450421
0.450432
0.450442
0.450442
0.450453
0.450463
0.450474
0.450484
0.450484
0.450495
0.450506
0.450516
0.450527
0.450527
0.450538
0.450548
0.450559
0.45057
0.45057
0.450581
0.450592
0.450603
0.450614
0.450614
0.450625
0.450636
0.450647
0.450658
0.450658
0.450669
0.45068
0.450691
0.450702
0.450702
0.450713
0.450725
0.450736
0.450747
0.450747
0.450758
0.45077
0.450781
0.450793
0.450793
0.450804
0.450815
0.450827
0.450838
0.450838
0.45085
0.450862
0.450873
0.450885
0.450885
0.450897
0.450908
0.45092
0.450932
0.450932
0.450944
0.450955
0.450967
0.450979
0.450979
0.450991
0.451003
0.451015
0.451027
0.451027
0.451039
0.451051
0.451063
0.451075
0.451075
0.451087
0.451099
0.451112
0.451124
0.451124
0.451136
0.451148
0.451161
0.451173
0.451173
0.451185
0.451198
0.45121
0.451223
0.451223
0.451235
0.451248
0.45126
0.451273
0.451273
0.451286
0.451298
0.451311
0.451324
0.451324
0.451336
0.451349
0.451362
0.451375
0.451375
0.451388
0.4514
0.451413
0.451426
0.451426
0.451439
0.451452
0.451465
0.451478
0.451478
0.451491
0.451505
0.451518
0.451531
0.451531
0.451544
0.451557
0.451571
0.451584
0.451584
0.451597
0.451611
0.451624
0.451637
0.451637
0.451651
0.451664
0.451678
0.451691
0.451691
0.451705
0.451719
0.451732
0.451746
0.451746
0.451759
0.451773
0.451787
0.451801
0.451801
0.451814
0.451828
0.451842
0.451856
0.451856
0.45187
0.451884
0.451898
0.451912
0.451912
0.451926
0.45194
0.451954
0.451968
0.451968
0.451982
0.451997
0.452011
0.452025
0.452025
0.452039
0.452054
0.452068
0.452082
0.452082
0.452097
0.452111
0.452126
0.45214
0.45214
0.452155
0.452169
0.452184
0.452198
0.452198
0.452213
0.452228
0.452242
0.452257
0.452257
0.452272
0.452286
0.452301
0.452316
0.452316
0.452331
0.452346
0.452361
0.452376
0.452376
0.452391
0.452406
0.452421
0.452436
0.452436
0.452451
0.452466
0.452481
0.452496
0.452496
0.452512
0.452527
0.452542
0.452557
0.452557
0.452573
0.452588
0.452604
0.452619
0.452619
0.452634
0.45265
0.452665
0.452681
0.452681
0.452697
0.452712
0.452728
0.452743
0.452743
0.452759
0.452775
0.452791
0.452806
0.452806
0.452822
0.452838
0.452854
0.45287
0.45287
0.452886
0.452902
0.452918
0.452934
0.452934
0.45295
0.452966
0.452982
0.452998
0.452998
0.453014
0.45303
0.453047
0.453063
0.453063
0.453079
0.453096
0.453112
0.453128
0.453128
0.453145
0.453161
0.453178
0.453194
0.453194
0.453211
0.453227
0.453244
0.45326
0.45326
0.453277
0.453294
0.45331
0.453327
0.453327
0.453344
0.453361
0.453377
0.453394
0.453394
0.453411
0.453428
0.453445
0.453462
0.453462
0.453479
0.453496
0.453513
0.45353
0.45353
0.453547
0.453564
0.453582
0.453599
0.453599
0.453616
0.453633
0.453651
0.453668
0.453668
0.453685
0.453703
0.45372
0.453737
0.453737
0.453755
0.453772
0.45379
0.453808
0.453808
0.453825
0.453843
0.45386
0.453878
0.453878
0.453896
0.453914
0.453931
0.453949
0.453949
0.453967
0.453985
0.454003
0.454021
0.454021
0.454039
0.454056
0.454074
0.454093
0.454093
0.454111
0.454129
0.454147
0.454165
0.454165
0.454183
0.454201
0.45422
0.454238
0.454238
0.454256
0.454275
0.454293
0.454311
0.454311
0.45433
0.454348
0.454367
0.454385
0.454385
0.454404
0.454422
0.454441
0.454459
0.454459
0.454478
0.454497
0.454516
0.454534
0.454534
0.454553
0.454572
0.454591
0.45461
0.45461
0.454628
0.454647
0.454666
0.454685
0.454685
0.454704
0.454723
0.454742
0.454762
0.454762
0.454781
0.4548
0.454819
0.454838
0.454838
0.454858
0.454877
0.454896
0.454915
0.454915
0.454935
0.454954
0.454974
0.454993
0.454993
0.455013
0.455032
0.455052
0.455071
0.455071
0.455091
0.455111
0.45513
0.45515
0.45515
0.45517
0.455189
0.455209
0.455229
0.455229
0.455249
0.455269
0.455289
0.455309
0.455309
0.455329
0.455349
0.455369
0.455389
0.455389
0.455409
0.455429
0.455449
0.455469
0.455469
0.455489
0.45551
0.45553
0.45555
0.45555
0.45557
0.455591
0.455611
0.455632
0.455632
0.455652
0.455673
0.455693
0.455714
0.455714
0.455734
0.455755
0.455775
0.455796
0.455796
0.455817
0.455837
0.455858
0.455879
0.455879
0.4559
0.455921
0.455941
0.455962
0.455962
0.455983
0.456004
0.456025
0.456046
0.456046
0.456067
0.456088
0.456109
0.45613
0.45613
0.456152
0.456173
0.456194
0.456215
0.456215
0.456237
0.456258
0.456279
0.456301
0.456301
0.456322
0.456343
0.456365
0.456386
0.456386
0.456408
0.456429
0.456451
0.456473
0.456473
0.456494
0.456516
0.456538
0.456559
0.456559
0.456581
0.456603
0.456625
0.456647
0.456647
0.456668
0.45669
0.456712
0.456734
0.456734
0.456756
0.456778
0.4568
0.456822
0.456822
0.456844
0.456867
0.456889
0.456911
0.456911
0.456933
0.456955
0.456978
0.457
0.457
0.457022
0.457045
0.457067
0.45709
0.45709
0.457112
0.457135
0.457157
0.45718
0.45718
0.457202
0.457225
0.457248
0.45727
0.45727
0.457293
0.457316
0.457339
0.457361
0.457361
0.457384
0.457407
0.45743
0.457453
0.457453
0.457476
0.457499
0.457522
0.457545
0.457545
0.457568
0.457591
0.457614
0.457637
0.457637
0.45766
0.457684
0.457707
0.45773
0.45773
0.457753
0.457777
0.4578
0.457824
0.457824
0.457847
0.45787
0.457894
0.457917
0.457917
0.457941
0.457965
0.457988
0.458012
0.458012
0.458035
0.458059
0.458083
0.458107
0.458107
0.45813
0.458154
0.458178
0.458202
0.458202
0.458226
0.45825
0.458274
0.458298
0.458298
0.458322
0.458346
0.45837
0.458394
0.458394
0.458418
0.458442
0.458467
0.458491
0.458491
0.458515
0.458539
0.458564
0.458588
0.458588
0.458612
0.458637
0.458661
0.458686
0.458686
0.45871
0.458735
0.458759
0.458784
0.458784
0.458809
0.458833
0.458858
0.458883
0.458883
0.458907
0.458932
0.458957
0.458982
0.458982
0.459007
0.459032
0.459057
0.459081
0.459081
0.459106
0.459131
0.459157
0.459182
0.459182
0.459207
0.459232
0.459257
0.459282
0.459282
0.459307
0.459333
0.459358
0.459383
0.459383
0.459409
0.459434
0.459459
0.459485
0.459485
0.45951
0.459536
0.459561
0.459587
0.459587
0.459612
0.459638
0.459664
0.459689
0.459689
0.459715
0.459741
0.459767
0.459792
0.459792
0.459818
0.459844
0.45987
0.459896
0.459896
0.459922
0.459948
0.459974
0.46
0.46
0.460026
0.460052
0.460078
0.460104
0.460104
0.46013
0.460157
0.460183
0.460209
0.460209
0.460235
0.460262
0.460288
0.460315
0.460315
0.460341
0.460367
0.460394
0.46042
0.46042
0.460447
0.460474
0.4605
0.460527
0.460527
0.460553
0.46058
0.460607
0.460634
0.460634
0.46066
0.460687
0.460714
0.460741
0.460741
0.460768
0.460795
0.460822
0.460849
0.460849
0.460876
0.460903
0.46093
0.460957
0.460957
0.460984
0.461011
0.461039
0.461066
0.461066
0.461093
0.46112
0.461148
0.461175
0.461175
0.461202
0.46123
0.461257
0.461285
0.461285
0.461312
0.46134
0.461367
0.461395
0.461395
0.461423
0.46145
0.461478
0.461506
0.461506
0.461533
0.461561
0.461589
0.461617
0.461617
0.461645
0.461673
0.4617
0.461728
0.461728
0.461756
0.461784
0.461812
0.461841
0.461841
0.461869
0.461897
0.461925
0.461953
0.461953
0.461981
0.46201
0.462038
0.462066
0.462066
0.462095
0.462123
0.462151
0.46218
0.46218
0.462208
0.462237
0.462265
0.462294
0.462294
0.462323
0.462351
0.46238
0.462408
0.462408
0.462437
0.462466
0.462495
0.462523
0.462523
0.462552
0.462581
0.46261
0.462639
0.462639
0.462668
0.462697
0.462726
0.462755
0.462755
0.462784
0.462813
0.462842
0.462871
0.462871
0.462901
0.46293
0.462959
0.462988
0.462988
0.463018
0.463047
0.463076
0.463106
0.463106
0.463135
0.463165
0.463194
0.463224
0.463224
0.463253
0.463283
0.463313
0.463342
0.463342
0.463372
0.463402
0.463431
0.463461
0.463461
0.463491
0.463521
0.463551
0.46358
0.46358
0.46361
0.46364
0.46367
0.4637
0.4637
0.46373
0.46376
0.463791
0.463821
0.463821
0.463851
0.463881
0.463911
0.463942
0.463942
0.463972
0.464002
0.464032
0.464063
0.464063
0.464093
0.464124
0.464154
0.464185
0.464185
0.464215
0.464246
0.464276
0.464307
0.464307
0.464338
0.464368
0.464399
0.46443
0.46443
0.46446
0.464491
0.464522
0.464553
0.464553
0.464584
0.464615
0.464646
0.464677
0.464677
0.464708
0.464739
0.46477
0.464801
0.464801
0.464832
0.464863
0.464894
0.464926
0.464926
0.464957
0.464988
0.465019
0.465051
0.465051
0.465082
0.465114
0.465145
0.465176
0.465176
0.465208
0.465239
0.465271
0.465303
0.465303
0.465334
0.465366
0.465398
0.465429
0.465429
0.465461
0.465493
0.465525
0.465556
0.465556
0.465588
0.46562
0.465652
0.465684
0.465684
0.465716
0.465748
0.46578
0.465812
0.465812
0.465844
0.465876
0.465908
0.465941
0.465941
0.465973
0.466005
0.466037
0.46607
0.46607
0.466102
0.466134
0.466167
0.466199
0.466199
0.466232
0.466264
0.466297
0.466329
0.466329
0.466362
0.466395
0.466427
0.46646
0.46646
0.466493
0.466525
0.466558
0.466591
0.466591
0.466624
0.466657
0.466689
0.466722
0.466722
0.466755
0.466788
0.466821
0.466854
0.466854
0.466887
0.466921
0.466954
0.466987
0.466987
0.46702
0.467053
0.467087
0.46712
0.46712
0.467153
0.467186
0.46722
0.467253
0.467253
0.467287
0.46732
0.467354
0.467387
0.467387
0.467421
0.467454
0.467488
0.467522
0.467522
0.467555
0.467589
0.467623
0.467657
0.467657
0.46769
0.467724
0.467758
0.467792
0.467792
0.467826
0.46786
0.467894
0.467928
0.467928
0.467962
0.467996
0.46803
0.468064
0.468064
0.468098
0.468133
0.468167
0.468201
0.468201
0.468235
0.46827
0.468304
0.468338
0.468338
0.468373
0.468407
0.468442
0.468476
0.468476
0.468511
0.468545
0.46858
0.468615
0.468615
0.468649
0.468684
0.468719
0.468753
0.468753
0.468788
0.468823
0.468858
0.468893
0.468893
0.468928
0.468963
0.468998
0.469033
0.469033
0.469068
0.469103
0.469138
0.469173
0.469173
0.469208
0.469243
0.469278
0.469314
0.469314
0.469349
0.469384
0.469419
0.469455
0.469455
0.46949
0.469526
0.469561
0.469597
0.469597
0.469632
0.469668
0.469703
0.469739
0.469739
0.469774
0.46981
0.469846
0.469882
0.469882
0.469917
0.469953
0.469989
0.470025
0.470025
0.470061
0.470097
0.470133
0.470169
0.470169
0.470205
0.470241
0.470277
0.470313
0.470313
0.470349
0.470385
0.470421
0.470457
0.470457
0.470494
0.47053
0.470566
0.470603
0.470603
0.470639
0.470675
0.470712
0.470748
0.470748
0.470785
0.470821
0.470858
0.470894
0.470894
0.470931
0.470968
0.471004
0.471041
0.471041
0.471078
0.471115
0.471151
0.471188
0.471188
0.471225
0.471262
0.471299
0.471336
0.471336
0.471373
0.47141
0.471447
0.471484
0.471484
0.471521
0.471558
0.471595
0.471633
0.471633
0.47167
0.471707
0.471744
0.471782
0.471782
0.471819
0.471856
0.471894
0.471931
0.471931
0.471969
0.472006
0.472044
0.472081
0.472081
0.472119
0.472157
0.472194
0.472232
0.472232
0.47227
0.472307
0.472345
0.472383
0.472383
0.472421
0.472459
0.472497
0.472535
0.472535
0.472573
0.472611
0.472649
0.472687
0.472687
0.472725
0.472763
0.472801
0.472839
0.472839
0.472877
0.472916
0.472954
0.472992
0.472992
0.473031
0.473069
0.473107
0.473146
0.473146
0.473184
0.473223
0.473261
0.4733
0.4733
0.473338
0.473377
0.473416
0.473454
0.473454
0.473493
0.473532
0.473571
0.473609
0.473609
0.473648
0.473687
0.473726
0.473765
0.473765
0.473804
0.473843
0.473882
0.473921
0.473921
0.47396
0.473999
0.474038
0.474077
0.474077
0.474117
0.474156
0.474195
0.474234
0.474234
0.474274
0.474313
0.474353
0.474392
0.474392
0.474431
0.474471
0.47451
0.47455
0.47455
0.47459
0.474629
0.474669
0.474708
0.474708
0.474748
0.474788
0.474828
0.474867
0.474867
0.474907
0.474947
0.474987
0.475027
0.475027
0.475067
0.475107
0.475147
0.475187
0.475187
0.475227
0.475267
0.475307
0.475347
0.475347
0.475387
0.475428
0.475468
0.475508
0.475508
0.475549
0.475589
0.475629
0.47567
0.47567
0.47571
0.475751
0.475791
0.475832
0.475832
0.475872
0.475913
0.475953
0.475994
0.475994
0.476035
0.476075
0.476116
0.476157
0.476157
0.476198
0.476239
0.47628
0.47632
0.47632
0.476361
0.476402
0.476443
0.476484
0.476484
0.476525
0.476567
0.476608
0.476649
0.476649
0.47669
0.476731
0.476772
0.476814
0.476814
0.476855
0.476896
0.476938
0.476979
0.476979
0.477021
0.477062
0.477104
0.477145
0.477145
0.477187
0.477228
0.47727
0.477311
0.477311
0.477353
0.477395
0.477437
0.477478
0.477478
0.47752
0.477562
0.477604
0.477646
0.477646
0.477688
0.47773
0.477772
0.477814
0.477814
0.477856
0.477898
0.47794
0.477982
0.477982
0.478024
0.478066
0.478109
0.478151
0.478151
0.478193
0.478236
0.478278
0.47832
0.47832
0.478363
0.478405
0.478448
0.47849
0.47849
0.478533
0.478575
0.478618
0.478661
0.478661
0.478703
0.478746
0.478789
0.478832
0.478832
0.478874
0.478917
0.47896
0.479003
0.479003
0.479046
0.479089
0.479132
0.479175
0.479175
0.479218
0.479261
0.479304
0.479347
0.479347
0.47939
0.479434
0.479477
0.47952
0.47952
0.479563
0.479607
0.47965
0.479694
0.479694
0.479737
0.47978
0.479824
0.479867
0.479867
0.479911
0.479955
0.479998
0.480042
0.480042
0.480086
0.480129
0.480173
0.480217
0.480217
0.480261
0.480304
0.480348
0.480392
0.480392
0.480436
0.48048
0.480524
0.480568
0.480568
0.480612
0.480656
0.4807
0.480744
0.480744
0.480789
0.480833
0.480877
0.480921
0.480921
0.480966
0.48101
0.481054
0.481099
0.481099
0.481143
0.481188
0.481232
0.481277
0.481277
0.481321
0.481366
0.48141
0.481455
0.481455
0.4815
0.481544
0.481589
0.481634
0.481634
0.481679
0.481724
0.481768
0.481813
0.481813
0.481858
0.481903
0.481948
0.481993
0.481993
0.482038
0.482083
0.482129
0.482174
0.482174
0.482219
0.482264
0.482309
0.482355
0.482355
0.4824
0.482445
0.482491
0.482536
0.482536
0.482581
0.482627
0.482672
0.482718
0.482718
0.482763
0.482809
0.482855
0.4829
0.4829
0.482946
0.482992
0.483037
0.483083
0.483083
0.483129
0.483175
0.483221
0.483267
0.483267
0.483313
0.483359
0.483405
0.483451
0.483451
0.483497
0.483543
0.483589
0.483635
0.483635
0.483681
0.483727
0.483774
0.48382
0.48382
0.483866
0.483913
0.483959
0.484005
0.484005
0.484052
0.484098
0.484145
0.484191
0.484191
0.484238
0.484285
0.484331
0.484378
0.484378
0.484425
0.484471
0.484518
0.484565
0.484565
0.484612
0.484658
0.484705
0.484752
0.484752
0.484799
0.484846
0.484893
0.48494
0.48494
0.484987
0.485034
0.485082
0.485129
0.485129
0.485176
0.485223
0.48527
0.485318
0.485318
0.485365
0.485412
0.48546
0.485507
0.485507
0.485555
0.485602
0.48565
0.485697
0.485697
0.485745
0.485792
0.48584
0.485888
0.485888
0.485935
0.485983
0.486031
0.486079
0.486079
0.486127
0.486174
0.486222
0.48627
0.48627
0.486318
0.486366
0.486414
0.486462
0.486462
0.48651
0.486558
0.486607
0.486655
0.486655
0.486703
0.486751
0.486799
0.486848
0.486848
0.486896
0.486945
0.486993
0.487041
0.487041
0.48709
0.487138
0.487187
0.487235
0.487235
0.487284
0.487333
0.487381
0.48743
0.48743
0.487479
0.487527
0.487576
0.487625
0.487625
0.487674
0.487723
0.487772
0.487821
0.487821
0.48787
0.487919
0.487968
0.488017
0.488017
0.488066
0.488115
0.488164
0.488213
0.488213
0.488263
0.488312
0.488361
0.48841
0.48841
0.48846
0.488509
0.488559
0.488608
0.488608
0.488657
0.488707
0.488757
0.488806
0.488806
0.488856
0.488905
0.488955
0.489005
0.489005
0.489054
0.489104
0.489154
0.489204
0.489204
0.489254
0.489304
0.489354
0.489404
0.489404
0.489454
0.489504
0.489554
0.489604
0.489604
0.489654
0.489704
0.489754
0.489804
0.489804
0.489855
0.489905
0.489955
0.490006
0.490006
0.490056
0.490106
0.490157
0.490207
0.490207
0.490258
0.490308
0.490359
0.490409
0.490409
0.49046
0.490511
0.490561
0.490612
0.490612
0.490663
0.490714
0.490765
0.490815
0.490815
0.490866
0.490917
0.490968
0.491019
0.491019
0.49107
0.491121
0.491172
0.491223
0.491223
0.491275
0.491326
0.491377
0.491428
0.491428
0.491479
0.491531
0.491582
0.491633
0.491633
0.491685
0.491736
0.491788
0.491839
0.491839
0.491891
0.491942
0.491994
0.492046
0.492046
0.492097
0.492149
0.492201
0.492252
0.492252
0.492304
0.492356
0.492408
0.49246
0.49246
0.492512
0.492564
0.492616
0.492668
0.492668
0.49272
0.492772
0.492824
0.492876
0.492876
0.492928
0.49298
0.493033
0.493085
0.493085
0.493137
0.493189
0.493242
0.493294
0.493294
0.493347
0.493399
0.493452
0.493504
0.493504
0.493557
0.493609
0.493662
0.493715
0.493715
0.493767
0.49382
0.493873
0.493926
0.493926
0.493978
0.494031
0.494084
0.494137
0.494137
0.49419
0.494243
0.494296
0.494349
0.494349
0.494402
0.494455
0.494508
0.494561
0.494561
0.494615
0.494668
0.494721
0.494774
0.494774
0.494828
0.494881
0.494935
0.494988
0.494988
0.495041
0.495095
0.495148
0.495202
0.495202
0.495256
0.495309
0.495363
0.495417
0.495417
0.49547
0.495524
0.495578
0.495632
0.495632
0.495686
0.495739
0.495793
0.495847
0.495847
0.495901
0.495955
0.496009
0.496063
0.496063
0.496117
0.496172
0.496226
0.49628
0.49628
0.496334
0.496389
0.496443
0.496497
0.496497
0.496552
0.496606
0.49666
0.496715
0.496715
0.496769
0.496824
0.496878
0.496933
0.496933
0.496988
0.497042
0.497097
0.497152
0.497152
0.497206
0.497261
0.497316
0.497371
0.497371
0.497426
0.497481
0.497536
0.497591
0.497591
0.497646
0.497701
0.497756
0.497811
0.497811
0.497866
0.497921
0.497976
0.498032
0.498032
0.498087
0.498142
0.498198
0.498253
0.498253
0.498308
0.498364
0.498419
0.498475
0.498475
0.49853
0.498586
0.498642
0.498697
0.498697
0.498753
0.498809
0.498864
0.49892
0.49892
0.498976
0.499032
0.499088
0.499143
0.499143
0.499199
0.499255
0.499311
0.499367
0.499367
0.499423
0.49948
0.499536
0.499592
0.499592
0.499648
0.499704
0.499761
0.499817
0.499817
0.499873
0.499929
0.499986
0.500042
0.500042
0.500099
0.500155
0.500212
0.500268
0.500268
0.500325
0.500381
0.500438
0.500495
0.500495
0.500552
0.500608
0.500665
0.500722
0.500722
0.500779
0.500836
0.500892
0.500949
0.500949
0.501006
0.501063
0.50112
0.501178
0.501178
0.501235
0.501292
0.501349
0.501406
0.501406
0.501463
0.501521
0.501578
0.501635
0.501635
0.501693
0.50175
0.501808
0.501865
0.501865
0.501922
0.50198
0.502038
0.502095
0.502095
0.502153
0.50221
0.502268
0.502326
0.502326
0.502384
0.502441
0.502499
0.502557
0.502557
0.502615
0.502673
0.502731
0.502789
0.502789
0.502847
0.502905
0.502963
0.503021
0.503021
0.503079
0.503138
0.503196
0.503254
0.503254
0.503312
0.503371
0.503429
0.503487
0.503487
0.503546
0.503604
0.503663
0.503721
0.503721
0.50378
0.503838
0.503897
0.503956
0.503956
0.504014
0.504073
0.504132
0.504191
0.504191
0.50425
0.504308
0.504367
0.504426
0.504426
0.504485
0.504544
0.504603
0.504662
0.504662
0.504721
0.50478
0.50484
0.504899
0.504899
0.504958
0.505017
0.505076
0.505136
0.505136
0.505195
0.505254
0.505314
0.505373
0.505373
0.505433
0.505492
0.505552
0.505611
0.505611
0.505671
0.505731
0.50579
0.50585
0.50585
0.50591
0.50597
0.506029
0.506089
0.506089
0.506149
0.506209
0.506269
0.506329
0.506329
0.506389
0.506449
0.506509
0.506569
0.506569
0.506629
0.50669
0.50675
0.50681
0.50681
0.50687
0.506931
0.506991
0.507051
0.507051
0.507112
0.507172
0.507233
0.507293
0.507293
0.507354
0.507414
0.507475
0.507536
0.507536
0.507596
0.507657
0.507718
0.507778
0.507778
0.507839
0.5079
0.507961
0.508022
0.508022
0.508083
0.508144
0.508205
0.508266
0.508266
0.508327
0.508388
0.508449
0.50851
0.50851
0.508572
0.508633
0.508694
0.508755
0.508755
0.508817
0.508878
0.508939
0.509001
0.509001
0.509062
0.509124
0.509185
0.509247
0.509247
0.509309
0.50937
0.509432
0.509494
0.509494
0.509555
0.509617
0.509679
0.509741
0.509741
0.509803
0.509865
0.509927
0.509989
0.509989
0.510051
0.510113
0.510175
0.510237
0.510237
0.510299
0.510361
0.510423
0.510486
0.510486
0.510548
0.51061
0.510672
0.510735
0.510735
0.510797
0.51086
0.510922
0.510985
0.510985
0.511047
0.51111
0.511172
0.511235
0.511235
0.511298
0.51136
0.511423
0.511486
0.511486
0.511549
0.511612
0.511675
0.511737
0.511737
0.5118
0.511863
0.511926
0.511989
0.511989
0.512053
0.512116
0.512179
0.512242
0.512242
0.512305
0.512369
0.512432
0.512495
0.512495
0.512558
0.512622
0.512685
0.512749
0.512749
0.512812
0.512876
0.512939
0.513003
0.513003
0.513067
0.51313
0.513194
0.513258
0.513258
0.513321
0.513385
0.513449
0.513513
0.513513
0.513577
0.513641
0.513705
0.513769
0.513769
0.513833
0.513897
0.513961
0.514025
0.514025
0.514089
0.514153
0.514217
0.514282
0.514282
0.514346
0.51441
0.514475
0.514539
0.514539
0.514604
0.514668
0.514733
0.514797
0.514797
0.514862
0.514926
0.514991
0.515056
0.515056
0.51512
0.515185
0.51525
0.515315
0.515315
0.515379
0.515444
0.515509
0.515574
0.515574
0.515639
0.515704
0.515769
0.515834
0.515834
0.515899
0.515965
0.51603
0.516095
0.516095
0.51616
0.516225
0.516291
0.516356
0.516356
0.516422
0.516487
0.516552
0.516618
0.516618
0.516683
0.516749
0.516815
0.51688
0.51688
0.516946
0.517012
0.517077
0.517143
0.517143
0.517209
0.517275
0.51734
0.517406
0.517406
0.517472
0.517538
0.517604
0.51767
0.51767
0.517736
0.517802
0.517869
0.517935
0.517935
0.518001
0.518067
0.518133
0.5182
0.5182
0.518266
0.518332
0.518399
0.518465
0.518465
0.518532
0.518598
0.518665
0.518731
0.518731
0.518798
0.518865
0.518931
0.518998
0.518998
0.519065
0.519132
0.519198
0.519265
0.519265
0.519332
0.519399
0.519466
0.519533
0.519533
0.5196
0.519667
0.519734
0.519801
0.519801
0.519869
0.519936
0.520003
0.52007
0.52007
0.520138
0.520205
0.520272
0.52034
0.52034
0.520407
0.520475
0.520542
0.52061
0.52061
0.520677
0.520745
0.520812
0.52088
0.52088
0.520948
0.521015
0.521083
0.521151
0.521151
0.521219
0.521287
0.521355
0.521423
0.521423
0.521491
0.521559
0.521627
0.521695
0.521695
0.521763
0.521831
0.521899
0.521968
0.521968
0.522036
0.522104
0.522172
0.522241
0.522241
0.522309
0.522378
0.522446
0.522515
0.522515
0.522583
0.522652
0.52272
0.522789
0.522789
0.522858
0.522926
0.522995
0.523064
0.523064
0.523133
0.523202
0.52327
0.523339
0.523339
0.523408
0.523477
0.523546
0.523615
0.523615
0.523684
0.523754
0.523823
0.523892
0.523892
0.523961
0.52403
0.5241
0.524169
0.524169
0.524238
0.524308
0.524377
0.524447
0.524447
0.524516
0.524586
0.524655
0.524725
0.524725
0.524795
0.524864
0.524934
0.525004
0.525004
0.525074
0.525143
0.525213
0.525283
0.525283
0.525353
0.525423
0.525493
0.525563
0.525563
0.525633
0.525703
0.525773
0.525843
0.525843
0.525914
0.525984
0.526054
0.526124
0.526124
0.526195
0.526265
0.526336
0.526406
0.526406
0.526477
0.526547
0.526618
0.526688
0.526688
0.526759
0.526829
0.5269
0.526971
0.526971
0.527042
0.527112
0.527183
0.527254
0.527254
0.527325
0.527396
0.527467
0.527538
0.527538
0.527609
0.52768
0.527751
0.527822
0.527822
0.527893
0.527965
0.528036
0.528107
0.528107
0.528179
0.52825
0.528321
0.528393
0.528393
0.528464
0.528536
0.528607
0.528679
0.528679
0.52875
0.528822
0.528894
0.528965
0.528965
0.529037
0.529109
0.529181
0.529253
0.529253
0.529324
0.529396
0.529468
0.52954
0.52954
0.529612
0.529684
0.529756
0.529829
0.529829
0.529901
0.529973
0.530045
0.530117
0.530117
0.53019
0.530262
0.530334
0.530407
0.530407
0.530479
0.530552
0.530624
0.530697
0.530697
0.530769
0.530842
0.530915
0.530987
0.530987
0.53106
0.531133
0.531206
0.531278
0.531278
0.531351
0.531424
0.531497
0.53157
0.53157
0.531643
0.531716
0.531789
0.531862
0.531862
0.531936
0.532009
0.532082
0.532155
0.532155
0.532229
0.532302
0.532375
0.532449
0.532449
0.532522
0.532595
0.532669
0.532743
0.532743
0.532816
0.53289
0.532963
0.533037
0.533037
0.533111
0.533185
0.533258
0.533332
0.533332
0.533406
0.53348
0.533554
0.533628
0.533628
0.533702
0.533776
0.53385
0.533924
0.533924
0.533998
0.534072
0.534147
0.534221
0.534221
0.534295
0.534369
0.534444
0.534518
0.534518
0.534593
0.534667
0.534742
0.534816
0.534816
0.534891
0.534965
0.53504
0.535115
0.535115
0.535189
0.535264
0.535339
0.535414
0.535414
0.535488
0.535563
0.535638
0.535713
0.535713
0.535788
0.535863
0.535938
0.536013
0.536013
0.536089
0.536164
0.536239
0.536314
0.536314
0.536389
0.536465
0.53654
0.536616
0.536616
0.536691
0.536766
0.536842
0.536917
0.536917
0.536993
0.537069
0.537144
0.53722
0.53722
0.537296
0.537371
0.537447
0.537523
0.537523
0.537599
0.537675
0.537751
0.537827
0.537827
0.537903
0.537979
0.538055
0.538131
0.538131
0.538207
0.538283
0.538359
0.538436
0.538436
0.538512
0.538588
0.538665
0.538741
0.538741
0.538818
0.538894
0.53897
0.539047
0.539047
0.539124
0.5392
0.539277
0.539354
0.539354
0.53943
0.539507
0.539584
0.539661
0.539661
0.539738
0.539814
0.539891
0.539968
0.539968
0.540045
0.540122
0.540199
0.540277
0.540277
0.540354
0.540431
0.540508
0.540585
0.540585
0.540663
0.54074
0.540817
0.540895
0.540895
0.540972
0.54105
0.541127
0.541205
0.541205
0.541282
0.54136
0.541438
0.541515
0.541515
0.541593
0.541671
0.541749
0.541827
0.541827
0.541904
0.541982
0.54206
0.542138
0.542138
0.542216
0.542294
0.542372
0.542451
0.542451
0.542529
0.542607
0.542685
0.542763
0.542763
0.542842
0.54292
0.542999
0.543077
0.543077
0.543155
0.543234
0.543312
0.543391
0.543391
0.54347
0.543548
0.543627
0.543706
0.543706
0.543784
0.543863
0.543942
0.544021
0.544021
0.5441
0.544179
0.544258
0.544337
0.544337
0.544416
0.544495
0.544574
0.544653
0.544653
0.544732
0.544812
0.544891
0.54497
0.54497
0.545049
0.545129
0.545208
0.545288
0.545288
0.545367
0.545447
0.545526
0.545606
0.545606
0.545685
0.545765
0.545845
0.545925
0.545925
0.546004
0.546084
0.546164
0.546244
0.546244
0.546324
0.546404
0.546484
0.546564
0.546564
0.546644
0.546724
0.546804
0.546884
0.546884
0.546964
0.547045
0.547125
0.547205
0.547205
0.547286
0.547366
0.547447
0.547527
0.547527
0.547608
0.547688
0.547769
0.547849
0.547849
0.54793
0.548011
0.548091
0.548172
0.548172
0.548253
0.548334
0.548415
0.548496
0.548496
0.548577
0.548658
0.548739
0.54882
0.54882
0.548901
0.548982
0.549063
0.549144
0.549144
0.549226
0.549307
0.549388
0.54947
0.54947
0.549551
0.549632
0.549714
0.549795
0.549795
0.549877
0.549958
0.55004
0.550122
0.550122
0.550203
0.550285
0.550367
0.550449
0.550449
0.550531
0.550612
0.550694
0.550776
0.550776
0.550858
0.55094
0.551022
0.551105
0.551105
0.551187
0.551269
0.551351
0.551433
0.551433
0.551516
0.551598
0.55168
0.551763
0.551763
0.551845
0.551928
0.55201
0.552093
0.552093
0.552175
0.552258
0.552341
0.552423
0.552423
0.552506
0.552589
0.552672
0.552754
0.552754
0.552837
0.55292
0.553003
0.553086
0.553086
0.553169
0.553252
0.553335
0.553419
0.553419
0.553502
0.553585
0.553668
0.553752
0.553752
0.553835
0.553918
0.554002
0.554085
0.554085
0.554169
0.554252
0.554336
0.554419
0.554419
0.554503
0.554587
0.55467
0.554754
0.554754
0.554838
0.554922
0.555006
0.555089
0.555089
0.555173
0.555257
0.555341
0.555425
0.555425
0.55551
0.555594
0.555678
0.555762
0.555762
0.555846
0.555931
0.556015
0.556099
0.556099
0.556184
0.556268
0.556352
0.556437
0.556437
0.556522
0.556606
0.556691
0.556775
0.556775
0.55686
0.556945
0.55703
0.557114
0.557114
0.557199
0.557284
0.557369
0.557454
0.557454
0.557539
0.557624
0.557709
0.557794
0.557794