<?xml version="1.0"?>
<VTKFile type="UnstructuredGrid" version="0.1" byte_order="LittleEndian">
<UnstructuredGrid>
<Piece NumberOfPoints="5000" NumberOfCells="4000">
<PointData Scalars="Reaction 0">
<DataArray type="Float32" Name="Reaction 0" format="ascii">
0.374318
0.374318
0.374318
0.374318
0.374318
0.374318
0.374318
0.374319
0.374319
0.374319
0.374319
0.374319
0.374319
0.37432
0.37432
0.37432
0.37432
0.374321
0.374321
0.374322
0.374322
0.374322
0.374323
0.374323
0.374324
0.374324
0.374324
0.374325
0.374326
0.374326
0.374326
0.374327
0.374328
0.374329
0.374329
0.374329
0.37433
0.374331
0.374332
0.374333
0.374333
0.374334
0.374335
0.374336
0.374337
0.374337
0.374338
0.374339
0.37434
0.374341
0.374341
0.374342
0.374344
0.374345
0.374346
0.374346
0.374347
0.374349
0.37435
0.374351
0.374351
0.374353
0.374354
0.374356
0.374357
0.374357
0.374359
0.37436
0.374362
0.374363
0.374363
0.374365
0.374367
0.374368
0.37437
0.37437
0.374372
0.374374
0.374376
0.374377
0.374377
0.374379
0.374381
0.374383
0.374385
0.374385
0.374387
0.374389
0.374391
0.374393
0.374393
0.374395
0.374397
0.3744
0.374402
0.374402
0.374404
0.374406
0.374408
0.374411
0.374411
0.374413
0.374415
0.374418
0.37442
0.37442
0.374423
0.374425
0.374428
0.37443
0.37443
0.374433
0.374435
0.374438
0.374441
0.374441
0.374443
0.374446
0.374449
0.374452
0.374452
0.374454
0.374457
0.37446
0.374463
0.374463
0.374466
0.374469
0.374472
0.374475
0.374475
0.374478
0.374481
0.374484
0.374487
0.374487
0.37449
0.374493
0.374497
0.3745
0.3745
0.374503
0.374506
0.37451
0.374513
0.374513
0.374516
0.37452
0.374523
0.374527
0.374527
0.37453
0.374534
0.374537
0.374541
0.374541
0.374545
0.374548
0.374552
0.374556
0.374556
0.374559
0.374563
0.374567
0.374571
0.374571
0.374574
0.374578
0.374582
0.374586
0.374586
0.37459
0.374594
0.374598
0.374602
0.374602
0.374606
0.37461
0.374614
0.374619
0.374619
0.374623
0.374627
0.374631
0.374636
0.374636
0.37464
0.374644
0.374649
0.374653
0.374653
0.374657
0.374662
0.374666
0.374671
0.374671
0.374675
0.37468
0.374685
0.374689
0.374689
0.374694
0.374698
0.374703
0.374708
0.374708
0.374713
0.374718
0.374722
0.374727
0.374727
0.374732
0.374737
0.374742
0.374747
0.374747
0.374752
0.374757
0.374762
0.374767
0.374767
0.374772
0.374777
0.374783
0.374788
0.374788
0.374793
0.374798
0.374804
0.374809
0.374809
0.374814
0.37482
0.374825
0.37483
0.37483
0.374836
0.374841
0.374847
0.374852
0.374852
0.374858
0.374864
0.374869
0.374875
0.374875
0.374881
0.374886
0.374892
0.374898
0.374898
0.374904
0.37491
0.374915
0.374921
0.374921
0.374927
0.374933
0.374939
0.374945
0.374945
0.374951
0.374957
0.374963
0.37497
0.37497
0.374976
0.374982
0.374988
0.374994
0.374994
0.375001
0.375007
0.375013
0.37502
0.37502
0.375026
0.375032
0.375039
0.375045
0.375045
0.375052
0.375058
0.375065
0.375072
0.375072
0.375078
0.375085
0.375092
0.375098
0.375098
0.375105
0.375112
0.375119
0.375125
0.375125
0.375132
0.375139
0.375146
0.375153
0.375153
0.37516
0.375167
0.375174
0.375181
0.375181
0.375188
0.375195
0.375202
0.37521
0.37521
0.375217
0.375224
0.375231
0.375239
0.375239
0.375246
0.375253
0.375261
0.375268
0.375268
0.375275
0.375283
0.37529
0.375298
0.375298
0.375305
0.375313
0.375321
0.375328
0.375328
0.375336
0.375344
0.375351
0.375359
0.375359
0.375367
0.375375
0.375383
0.37539
0.37539
0.375398
0.375406
0.375414
0.375422
0.375422
0.37543
0.375438
0.375446
0.375454
0.375454
0.375463
0.375471
0.375479
0.375487
0.375487
0.375495
0.375504
0.375512
0.37552
0.37552
0.375529
0.375537
0.375545
0.375554
0.375554
0.375562
0.375571
0.375579
0.375588
0.375588
0.375597
0.375605
0.375614
0.375623
0.375623
0.375631
0.37564
0.375649
0.375658
0.375658
0.375666
0.375675
0.375684
0.375693
0.375693
0.375702
0.375711
0.37572
0.375729
0.375729
0.375738
0.375747
0.375756
0.375765
0.375765
0.375775
0.375784
0.375793
0.375802
0.375802
0.375812
0.375821
0.37583
0.37584
0.37584
0.375849
0.375858
0.375868
0.375877
0.375877
0.375887
0.375896
0.375906
0.375916
0.375916
0.375925
0.375935
0.375945
0.375954
0.375954
0.375964
0.375974
0.375984
0.375993
0.375993
0.376003
0.376013
0.376023
0.376033
0.376033
0.376043
0.376053
0.376063
0.376073
0.376073
0.376083
0.376093
0.376104
0.376114
0.376114
0.376124
0.376134
0.376145
0.376155
0.376155
0.376165
0.376176
0.376186
0.376196
0.376196
0.376207
0.376217
0.376228
0.376238
0.376238
0.376249
0.376259
0.37627
0.376281
0.376281
0.376291
0.376302
0.376313
0.376324
0.376324
0.376334
0.376345
0.376356
0.376367
0.376367
0.376378
0.376389
0.3764
0.376411
0.376411
0.376422
0.376433
0.376444
0.376455
0.376455
0.376466
0.376477
0.376489
0.3765
0.3765
0.376511
0.376522
0.376534
0.376545
0.376545
0.376556
0.376568
0.376579
0.376591
0.376591
0.376602
0.376614
0.376625
0.376637
0.376637
0.376648
0.37666
0.376672
0.376683
0.376683
0.376695
0.376707
0.376719
0.37673
0.37673
0.376742
0.376754
0.376766
0.376778
0.376778
0.37679
0.376802
0.376814
0.376826
0.376826
0.376838
0.37685
0.376862
0.376874
0.376874
0.376886
0.376899
0.376911
0.376923
0.376923
0.376935
0.376948
0.37696
0.376973
0.376973
0.376985
0.376997
0.37701
0.377022
0.377022
0.377035
0.377047
0.37706
0.377073
0.377073
0.377085
0.377098
0.377111
0.377123
0.377123
0.377136
0.377149
0.377162
0.377175
0.377175
0.377187
0.3772
0.377213
0.377226
0.377226
0.377239
0.377252
0.377265
0.377278
0.377278
0.377292
0.377305
0.377318
0.377331
0.377331
0.377344
0.377357
0.377371
0.377384
0.377384
0.377397
0.377411
0.377424
0.377438
0.377438
0.377451
0.377465
0.377478
0.377492
0.377492
0.377505
0.377519
0.377532
0.377546
0.377546
0.37756
0.377573
0.377587
0.377601
0.377601
0.377615
0.377629
0.377642
0.377656
0.377656
0.37767
0.377684
0.377698
0.377712
0.377712
0.377726
0.37774
0.377754
0.377768
0.377768
0.377783
0.377797
0.377811
0.377825
0.377825
0.377839
0.377854
0.377868
0.377882
0.377882
0.377897
0.377911
0.377926
0.37794
0.37794
0.377955
0.377969
0.377984
0.377998
0.377998
0.378013
0.378027
0.378042
0.378057
0.378057
0.378072
0.378086
0.378101
0.378116
0.378116
0.378131
0.378146
0.37816
0.378175
0.378175
0.37819
0.378205
0.37822
0.378235
0.378235
0.37825
0.378266
0.378281
0.378296
0.378296
0.378311
0.378326
0.378341
0.378357
0.378357
0.378372
0.378387
0.378403
0.378418
0.378418
0.378434
0.378449
0.378464
0.37848
0.37848
0.378496
0.378511
0.378527
0.378542
0.378542
0.378558
0.378574
0.378589
0.378605
0.378605
0.378621
0.378637
0.378652
0.378668
0.378668
0.378684
0.3787
0.378716
0.378732
0.378732
0.378748
0.378764
0.37878
0.378796
0.378796
0.378812
0.378828
0.378845
0.378861
0.378861
0.378877
0.378893
0.378909
0.378926
0.378926
0.378942
0.378958
0.378975
0.378991
0.378991
0.379008
0.379024
0.379041
0.379057
0.379057
0.379074
0.37909
0.379107
0.379124
0.379124
0.37914
0.379157
0.379174
0.379191
0.379191
0.379207
0.379224
0.379241
0.379258
0.379258
0.379275
0.379292
0.379309
0.379326
0.379326
0.379343
0.37936
0.379377
0.379394
0.379394
0.379411
0.379428
0.379446
0.379463
0.379463
0.37948
0.379497
0.379515
0.379532
0.379532
0.37955
0.379567
0.379584
0.379602
0.379602
0.379619
0.379637
0.379654
0.379672
0.379672
0.37969
0.379707
0.379725
0.379743
0.379743
0.37976
0.379778
0.379796
0.379814
0.379814
0.379831
0.379849
0.379867
0.379885
0.379885
0.379903
0.379921
0.379939
0.379957
0.379957
0.379975
0.379993
0.380011
0.38003
0.38003
0.380048
0.380066
0.380084
0.380103
0.380103
0.380121
0.380139
0.380157
0.380176
0.380176
0.380194
0.380213
0.380231
0.38025
0.38025
0.380268
0.380287
0.380305
0.380324
0.380324
0.380343
0.380361
0.38038
0.380399
0.380399
0.380418
0.380436
0.380455
0.380474
0.380474
0.380493
0.380512
0.380531
0.38055
0.38055
0.380569
0.380588
0.380607
0.380626
0.380626
0.380645
0.380664
0.380683
0.380702
0.380702
0.380722
0.380741
0.38076
0.380779
0.380779
0.380799
0.380818
0.380838
0.380857
0.380857
0.380876
0.380896
0.380915
0.380935
0.380935
0.380954
0.380974
0.380994
0.381013
0.381013
0.381033
0.381053
0.381072
0.381092
0.381092
0.381112
0.381132
0.381152
0.381172
0.381172
0.381192
0.381211
0.381231
0.381251
0.381251
0.381271
0.381292
0.381312
0.381332
0.381332
0.381352
0.381372
0.381392
0.381412
0.381412
0.381433
0.381453
0.381473
0.381494
0.381494
0.381514
0.381534
0.381555
0.381575
0.381575
0.381596
0.381616
0.381637
0.381657
0.381657
0.381678
0.381699
0.381719
0.38174
0.38174
0.381761
0.381781
0.381802
0.381823
0.381823
0.381844
0.381865
0.381886
0.381907
0.381907
0.381927
0.381948
0.381969
0.38199
0.38199
0.382012
0.382033
0.382054
0.382075
0.382075
0.382096
0.382117
0.382139
0.38216
0.38216
0.382181
0.382202
0.382224
0.382245
0.382245
0.382267
0.382288
0.382309
0.382331
0.382331
0.382352
0.382374
0.382396
0.382417
0.382417
0.382439
0.38246
0.382482
0.382504
0.382504
0.382526
0.382547
0.382569
0.382591
0.382591
0.382613
0.382635
0.382657
0.382679
0.382679
0.382701
0.382723
0.382745
0.382767
0.382767
0.382789
0.382811
0.382833
0.382855
0.382855
0.382878
0.3829
0.382922
0.382944
0.382944
0.382967
0.382989
0.383011
0.383034
0.383034
0.383056
0.383079
0.383101
0.383124
0.383124
0.383146
0.383169
0.383192
0.383214
0.383214
0.383237
0.38326
0.383282
0.383305
0.383305
0.383328
0.383351
0.383373
0.383396
0.383396
0.383419
0.383442
0.383465
0.383488
0.383488
0.383511
0.383534
0.383557
0.38358
0.38358
0.383603
0.383627
0.38365
0.383673
0.383673
0.383696
0.38372
0.383743
0.383766
0.383766
0.38379
0.383813
0.383836
0.38386
0.38386
0.383883
0.383907
0.38393
0.383954
0.383954
0.383977
0.384001
0.384025
0.384048
0.384048
0.384072
0.384096
0.38412
0.384143
0.384143
0.384167
0.384191
0.384215
0.384239
0.384239
0.384263
0.384287
0.384311
0.384335
0.384335
0.384359
0.384383
0.384407
0.384431
0.384431
0.384455
0.384479
0.384504
0.384528
0.384528
0.384552
0.384576
0.384601
0.384625
0.384625
0.384649
0.384674
0.384698
0.384723
0.384723
0.384747
0.384772
0.384796
0.384821
0.384821
0.384846
0.38487
0.384895
0.38492
0.38492
0.384944
0.384969
0.384994
0.385019
0.385019
0.385044
0.385069
0.385093
0.385118
0.385118
0.385143
0.385168
0.385193
0.385218
0.385218
0.385243
0.385269
0.385294
0.385319
0.385319
0.385344
0.385369
0.385395
0.38542
0.38542
0.385445
0.38547
0.385496
0.385521
0.385521
0.385547
0.385572
0.385598
0.385623
0.385623
0.385649
0.385674
0.3857
0.385725
0.385725
0.385751
0.385777
0.385802
0.385828
0.385828
0.385854
0.38588
0.385906
0.385931
0.385931
0.385957
0.385983
0.386009
0.386035
0.386035
0.386061
0.386087
0.386113
0.386139
0.386139
0.386165
0.386191
0.386218
0.386244
0.386244
0.38627
0.386296
0.386323
0.386349
0.386349
0.386375
0.386402
0.386428
0.386454
0.386454
0.386481
0.386507
0.386534
0.38656
0.38656
0.386587
0.386614
0.38664
0.386667
0.386667
0.386693
0.38672
0.386747
0.386774
0.386774
0.3868
0.386827
0.386854
0.386881
0.386881
0.386908
0.386935
0.386962
0.386989
0.386989
0.387016
0.387043
0.38707
0.387097
0.387097
0.387124
0.387151
0.387179
0.387206
0.387206
0.387233
0.38726
0.387288
0.387315
0.387315
0.387342
0.38737
0.387397
0.387425
0.387425
0.387452
0.38748
0.387507
0.387535
0.387535
0.387562
0.38759
0.387618
0.387645
0.387645
0.387673
0.387701
0.387729
0.387756
0.387756
0.387784
0.387812
0.38784
0.387868
0.387868
0.387896
0.387924
0.387952
0.38798
0.38798
0.388008
0.388036
0.388064
0.388092
0.388092
0.38812
0.388148
0.388177
0.388205
0.388205
0.388233
0.388261
0.38829
0.388318
0.388318
0.388347
0.388375
0.388403
0.388432
0.388432
0.38846
0.388489
0.388518
0.388546
0.388546
0.388575
0.388603
0.388632
0.388661
0.388661
0.38869
0.388718
0.388747
0.388776
0.388776
0.388805
0.388834
0.388863
0.388892
0.388892
0.38892
0.388949
0.388978
0.389008
0.389008
0.389037
0.389066
0.389095
0.389124
0.389124
0.389153
0.389182
0.389212
0.389241
0.389241
0.38927
0.3893
0.389329
0.389358
0.389358
0.389388
0.389417
0.389447
0.389476
0.389476
0.389506
0.389535
0.389565
0.389595
0.389595
0.389624
0.389654
0.389684
0.389713
0.389713
0.389743
0.389773
0.389803
0.389833
0.389833
0.389862
0.389892
0.389922
0.389952
0.389952
0.389982
0.390012
0.390042
0.390072
0.390072
0.390102
0.390133
0.390163
0.390193
0.390193
0.390223
0.390253
0.390284
0.390314
0.390314
0.390344
0.390375
0.390405
0.390435
0.390435
0.390466
0.390496
0.390527
0.390557
0.390557
0.390588
0.390619
0.390649
0.39068
0.39068
0.390711
0.390741
0.390772
0.390803
0.390803
0.390833
0.390864
0.390895
0.390926
0.390926
0.390957
0.390988
0.391019
0.39105
0.39105
0.391081
0.391112
0.391143
0.391174
0.391174
0.391205
0.391236
0.391268
0.391299
0.391299
0.39133
0.391361
0.391393
0.391424
0.391424
0.391455
0.391487
0.391518
0.391549
0.391549
0.391581
0.391612
0.391644
0.391676
0.391676
0.391707
0.391739
0.39177
0.391802
0.391802
0.391834
0.391865
0.391897
0.391929
0.391929
0.391961
0.391993
0.392025
0.392056
0.392056
0.392088
0.39212
0.392152
0.392184
0.392184
0.392216
0.392248
0.392281
0.392313
0.392313
0.392345
0.392377
0.392409
0.392441
0.392441
0.392474
0.392506
0.392538
0.392571
0.392571
0.392603
0.392635
0.392668
0.3927
0.3927
0.392733
0.392765
0.392798
0.39283
0.39283
0.392863
0.392896
0.392928
0.392961
0.392961
0.392994
0.393027
0.393059
0.393092
0.393092
0.393125
0.393158
0.393191
0.393224
0.393224
0.393257
0.39329
0.393323
0.393356
0.393356
0.393389
0.393422
0.393455
0.393488
0.393488
0.393521
0.393554
0.393588
0.393621
0.393621
0.393654
0.393688
0.393721
0.393754
0.393754
0.393788
0.393821
0.393855
0.393888
0.393888
0.393922
0.393955
0.393989
0.394022
0.394022
0.394056
0.39409
0.394123
0.394157
0.394157
0.394191
0.394224
0.394258
0.394292
0.394292
0.394326
0.39436
0.394394
0.394428
0.394428
0.394462
0.394496
0.39453
0.394564
0.394564
0.394598
0.394632
0.394666
0.3947
0.3947
0.394734
0.394769
0.394803
0.394837
0.394837
0.394872
0.394906
0.39494
0.394975
0.394975
0.395009
0.395044
0.395078
0.395112
0.395112
0.395147
0.395182
0.395216
0.395251
0.395251
0.395285
0.39532
0.395355
0.39539
0.39539
0.395424
0.395459
0.395494
0.395529
0.395529
0.395564
0.395599
0.395634
0.395668
0.395668
0.395703
0.395738
0.395774
0.395809
0.395809
0.395844
0.395879
0.395914
0.395949
0.395949
0.395984
0.39602
0.396055
0.39609
0.39609
0.396126
0.396161
0.396196
0.396232
0.396232
0.396267
0.396303
0.396338
0.396374
0.396374
0.396409
0.396445
0.39648
0.396516
0.396516
0.396552
0.396587
0.396623
0.396659
0.396659
0.396695
0.396731
0.396766
0.396802
0.396802
0.396838
0.396874
0.39691
0.396946
0.396946
0.396982
0.397018
0.397054
0.39709
0.39709
0.397126
0.397162
0.397199
0.397235
0.397235
0.397271
0.397307
0.397344
0.39738
0.39738
0.397416
0.397453
0.397489
0.397526
0.397526
0.397562
0.397598
0.397635
0.397672
0.397672
0.397708
0.397745
0.397781
0.397818
0.397818
0.397855
0.397891
0.397928
0.397965
0.397965
0.398002
0.398039
0.398075
0.398112
0.398112
0.398149
0.398186
0.398223
0.39826
0.39826
0.398297
0.398334
0.398371
0.398408
0.398408
0.398446
0.398483
0.39852
0.398557
0.398557
0.398594
0.398632
0.398669
0.398706
0.398706
0.398744
0.398781
0.398818
0.398856
0.398856
0.398893
0.398931
0.398968
0.399006
0.399006
0.399044
0.399081
0.399119
0.399157
0.399157
0.399194
0.399232
0.39927
0.399308
0.399308
0.399345
0.399383
0.399421
0.399459
0.399459
0.399497
0.399535
0.399573
0.399611
0.399611
0.399649
0.399687
0.399725
0.399763
0.399763
0.399801
0.39984
0.399878
0.399916
0.399916
0.399954
0.399993
0.400031
0.400069
0.400069
0.400108
0.400146
0.400184
0.400223
0.400223
0.400261
0.4003
0.400339
0.400377
0.400377
0.400416
0.400454
0.400493
0.400532
0.400532
0.40057
0.400609
0.400648
0.400687
0.400687
0.400726
0.400764
0.400803
0.400842
0.400842
0.400881
0.40092
0.400959
0.400998
0.400998
0.401037
0.401076
0.401115
0.401155
0.401155
0.401194
0.401233
0.401272
0.401311
0.401311
0.401351
0.40139
0.401429
0.401469
0.401469
0.401508
0.401548
0.401587
0.401626
0.401626
0.401666
0.401706
0.401745
0.401785
0.401785
0.401824
0.401864
0.401904
0.401943
0.401943
0.401983
0.402023
0.402063
0.402102
0.402102
0.402142
0.402182
0.402222
0.402262
0.402262
0.402302
0.402342
0.402382
0.402422
0.402422
0.402462
0.402502
0.402542
0.402582
0.402582
0.402623
0.402663
0.402703
0.402743
0.402743
0.402784
0.402824
0.402864
0.402905
0.402905
0.402945
0.402986
0.403026
0.403067
0.403067
0.403107
0.403148
0.403188
0.403229
0.403229
0.403269
0.40331
0.403351
0.403391
0.403391
0.403432
0.403473
0.403514
0.403555
0.403555
0.403595
0.403636
0.403677
0.403718
0.403718
0.403759
0.4038
0.403841
0.403882
0.403882
0.403923
0.403964
0.404006
0.404047
0.404047
0.404088
0.404129
0.40417
0.404212
0.404212
0.404253
0.404294
0.404336
0.404377
0.404377
0.404419
0.40446
0.404501
0.404543
0.404543
0.404585
0.404626
0.404668
0.404709
0.404709
0.404751
0.404793
0.404834
0.404876
0.404876
0.404918
0.40496
0.405001
0.405043
0.405043
0.405085
0.405127
0.405169
0.405211
0.405211
0.405253
0.405295
0.405337
0.405379
0.405379
0.405421
0.405463
0.405505
0.405548
0.405548
0.40559
0.405632
0.405674
0.405717
0.405717
0.405759
0.405801
0.405844
0.405886
0.405886
0.405928
0.405971
0.406013
0.406056
0.406056
0.406098
0.406141
0.406184
0.406226
0.406226
0.406269
0.406312
0.406354
0.406397
0.406397
0.40644
0.406483
0.406525
0.406568
0.406568
0.406611
0.406654
0.406697
0.40674
0.40674
0.406783
0.406826
0.406869
0.406912
0.406912
0.406955
0.406998
0.407041
0.407085
0.407085
0.407128
0.407171
0.407214
0.407258
0.407258
0.407301
0.407344
0.407388
0.407431
0.407431
0.407475
0.407518
0.407562
0.407605
0.407605
0.407649
0.407692
0.407736
0.407779
0.407779
0.407823
0.407867
0.40791
0.407954
0.407954
0.407998
0.408042
0.408086
0.408129
0.408129
0.408173
0.408217
0.408261
0.408305
0.408305
0.408349
0.408393
0.408437
0.408481
0.408481
0.408525
0.40857
0.408614
0.408658
0.408658
0.408702
0.408746
0.408791
0.408835
0.408835
0.408879
0.408924
0.408968
0.409013
0.409013
0.409057
0.409101
0.409146
0.40919
0.40919
0.409235
0.40928
0.409324
0.409369
0.409369
0.409414
0.409458
0.409503
0.409548
0.409548
0.409593
0.409637
0.409682
0.409727
0.409727
0.409772
0.409817
0.409862
0.409907
0.409907
0.409952
0.409997
0.410042
0.410087
0.410087
0.410132
0.410177
0.410222
0.410268
0.410268
0.410313
0.410358
0.410403
0.410449
0.410449
0.410494
0.410539
0.410585
0.41063
0.41063
0.410676
0.410721
0.410767
0.410812
0.410812
0.410858
0.410903
0.410949
0.410995
0.410995
0.41104
0.411086
0.411132
0.411177
0.411177
0.411223
0.411269
0.411315
0.411361
0.411361
0.411407
0.411453
0.411499
0.411545
0.411545
0.411591
0.411637
0.411683
0.411729
0.411729
0.411775
0.411821
0.411867
0.411913
0.411913
0.41196
0.412006
0.412052
0.412099
0.412099
0.412145
0.412191
0.412238
0.412284
0.412284
0.412331
0.412377
0.412424
0.41247
0.41247
0.412517
0.412563
0.41261
0.412657
0.412657
0.412703
0.41275
0.412797
0.412843
0.412843
0.41289
0.412937
0.412984
0.413031
0.413031
0.413078
0.413125
0.413172
0.413219
0.413219
0.413266
0.413313
0.41336
0.413407
0.413407
0.413454
0.413501
0.413548
0.413595
0.413595
0.413643
0.41369
0.413737
0.413785
0.413785
0.413832
0.413879
0.413927
0.413974
0.413974
0.414022
0.414069
0.414117
0.414164
0.414164
0.414212
0.414259
0.414307
0.414355
0.414355
0.414402
0.41445
0.414498
0.414545
0.414545
0.414593
0.414641
0.414689
0.414737
0.414737
0.414785
0.414833
0.414881
0.414929
0.414929
0.414977
0.415025
0.415073
0.415121
0.415121
0.415169
0.415217
0.415265
0.415313
0.415313
0.415362
0.41541
0.415458
0.415507
0.415507
0.415555
0.415603
0.415652
0.4157
0.4157
0.415749
0.415797
0.415846
0.415894
0.415894
0.415943
0.415991
0.41604
0.416089
0.416089
0.416137
0.416186
0.416235
0.416284
0.416284
0.416332
0.416381
0.41643
0.416479
0.416479
0.416528
0.416577
0.416626
0.416675
0.416675
0.416724
0.416773
0.416822
0.416871
0.416871
0.41692
0.416969
0.417018
0.417068
0.417068
0.417117
0.417166
0.417215
0.417265
0.417265
0.417314
0.417363
0.417413
0.417462
0.417462
0.417512
0.417561
0.417611
0.41766
0.41766
0.41771
0.417759
0.417809
0.417859
0.417859
0.417908
0.417958
0.418008
0.418058
0.418058
0.418107
0.418157
0.418207
0.418257
0.418257
0.418307
0.418357
0.418407
0.418457
0.418457
0.418507
0.418557
0.418607
0.418657
0.418657
0.418707
0.418757
0.418807
0.418858
0.418858
0.418908
0.418958
0.419008
0.419059
0.419059
0.419109
0.41916
0.41921
0.41926
0.41926
0.419311
0.419361
0.419412
0.419462
0.419462
0.419513
0.419564
0.419614
0.419665
0.419665
0.419715
0.419766
0.419817
0.419868
0.419868
0.419918
0.419969
0.42002
0.420071
0.420071
0.420122
0.420173
0.420224
0.420275
0.420275
0.420326
0.420377
0.420428
0.420479
0.420479
0.42053
0.420581
0.420632
0.420684
0.420684
0.420735
0.420786
0.420837
0.420889
0.420889
0.42094
0.420992
0.421043
0.421094
0.421094
0.421146
0.421197
0.421249
0.4213
0.4213
0.421352
0.421404
0.421455
0.421507
0.421507
0.421558
0.42161
0.421662
0.421714
0.421714
0.421765
0.421817
0.421869
0.421921
0.421921
0.421973
0.422025
0.422077
0.422129
0.422129
0.422181
0.422233
0.422285
0.422337
0.422337
0.422389
0.422441
0.422493
0.422546
0.422546
0.422598
0.42265
0.422702
0.422755
0.422755
0.422807
0.422859
0.422912
0.422964
0.422964
0.423017
0.423069
0.423122
0.423174
0.423174
0.423227
0.423279
0.423332
0.423385
0.423385
0.423437
0.42349
0.423543
0.423596
0.423596
0.423648
0.423701
0.423754
0.423807
0.423807
0.42386
0.423913
0.423966
0.424019
0.424019
0.424072
0.424125
0.424178
0.424231
0.424231
0.424284
0.424337
0.42439
0.424443
0.424443
0.424497
0.42455
0.424603
0.424656
0.424656
0.42471
0.424763
0.424817
0.42487
0.42487
0.424923
0.424977
0.42503
0.425084
0.425084
0.425137
0.425191
0.425245
0.425298
0.425298
0.425352
0.425406
0.425459
0.425513
0.425513
0.425567
0.425621
0.425675
0.425728
0.425728
0.425782
0.425836
0.42589
0.425944
0.425944
0.425998
0.426052
0.426106
0.42616
0.42616
0.426214
0.426269
0.426323
0.426377
0.426377
0.426431
0.426485
0.42654
0.426594
0.426594
0.426648
0.426703
0.426757
0.426811
0.426811
0.426866
0.42692
0.426975
0.427029
0.427029
0.427084
0.427138
0.427193
0.427248
0.427248
0.427302
0.427357
0.427412
0.427467
0.427467
0.427521
0.427576
0.427631
0.427686
0.427686
0.427741
0.427796
0.427851
0.427905
0.427905
0.42796
0.428015
0.428071
0.428126
0.428126
0.428181
0.428236
0.428291
0.428346
0.428346
0.428401
0.428457
0.428512
0.428567
0.428567
0.428623
0.428678
0.428733
0.428789
0.428789
0.428844
0.4289
0.428955
0.429011
0.429011
0.429066
0.429122
0.429177
0.429233
0.429233
0.429289
0.429344
0.4294
0.429456
0.429456
0.429511
0.429567
0.429623
0.429679
0.429679
0.429735
0.429791
0.429847
0.429903
0.429903
0.429958
0.430014
0.430071
0.430127
0.430127
0.430183
0.430239
0.430295
0.430351
0.430351
0.430407
0.430464
0.43052
0.430576
0.430576
0.430632
0.430689
0.430745
0.430802
0.430802
0.430858
0.430914
0.430971
0.431027
0.431027
0.431084
0.43114
0.431197
0.431254
0.431254
0.43131
0.431367
0.431424
0.43148
0.43148
0.431537
0.431594
0.431651
0.431708
0.431708
0.431764
0.431821
0.431878
0.431935
0.431935
0.431992
0.432049
0.432106
0.432163
0.432163
0.43222
0.432277
0.432335
0.432392
0.432392
0.432449
0.432506
0.432563
0.432621
0.432621
0.432678
0.432735
0.432793
0.43285
0.43285
0.432907
0.432965
0.433022
0.43308
0.43308
0.433137
0.433195
0.433252
0.43331
0.43331
0.433368
0.433425
0.433483
0.433541
0.433541
0.433599
0.433656
0.433714
0.433772
0.433772
0.43383
0.433888
0.433946
0.434003
0.434003
0.434061
0.434119
0.434177
0.434235
0.434235
0.434294
0.434352
0.43441
0.434468
0.434468
0.434526
0.434584
0.434643
0.434701
0.434701
0.434759
0.434817
0.434876
0.434934
0.434934
0.434993
0.435051
0.435109
0.435168
0.435168
0.435226
0.435285
0.435343
0.435402
0.435402
0.435461
0.435519
0.435578
0.435637
0.435637
0.435695
0.435754
0.435813
0.435872
0.435872
0.435931
0.435989
0.436048
0.436107
0.436107
0.436166
0.436225
0.436284
0.436343
0.436343
0.436402
0.436461
0.43652
0.43658
0.43658
0.436639
0.436698
0.436757
0.436816
0.436816
0.436876
0.436935
0.436994
0.437054
0.437054
0.437113
0.437173
0.437232
0.437291
0.437291
0.437351
0.43741
0.43747
0.43753
0.43753
0.437589
0.437649
0.437708
0.437768
0.437768
0.437828
0.437888
0.437947
0.438007
0.438007
0.438067
0.438127
0.438187
0.438247
0.438247
0.438307
0.438367
0.438427
0.438487
0.438487
0.438547
0.438607
0.438667
0.438727
0.438727
0.438787
0.438847
0.438907
0.438968
0.438968
0.439028
0.439088
0.439148
0.439209
0.439209
0.439269
0.43933
0.43939
0.43945
0.43945
0.439511
0.439571
0.439632
0.439693
0.439693
0.439753
0.439814
0.439874
0.439935
0.439935
0.439996
0.440056
0.440117
0.440178
0.440178
0.440239
0.4403
0.440361
0.440421
0.440421
0.440482
0.440543
0.440604
0.440665
0.440665
0.440726
0.440787
0.440848
0.44091
0.44091
0.440971
0.441032
0.441093
0.441154
0.441154
0.441215
0.441277
0.441338
0.441399
0.441399
0.441461
0.441522
0.441584
0.441645
0.441645
0.441706
0.441768
0.441829
0.441891
0.441891
0.441953
0.442014
0.442076
0.442137
0.442137
0.442199
0.442261
0.442323
0.442384
0.442384
0.442446
0.442508
0.44257
0.442632
0.442632
0.442694
0.442755
0.442817
0.442879
0.442879
0.442941
0.443003
0.443066
0.443128
0.443128
0.44319
0.443252
0.443314
0.443376
0.443376
0.443438
0.443501
0.443563
0.443625
0.443625
0.443688
0.44375
0.443812
0.443875
0.443875
0.443937
0.444
0.444062
0.444125
0.444125
0.444187
0.44425
0.444313
0.444375
0.444375
0.444438
0.444501
0.444563
0.444626
0.444626
0.444689
0.444752
0.444814
0.444877
0.444877
0.44494
0.445003
0.445066
0.445129
0.445129
0.445192
0.445255
0.445318
0.445381
0.445381
0.445444
0.445507
0.44557
0.445634
0.445634
0.445697
0.44576
0.445823
0.445887
0.445887
0.44595
0.446013
0.446077
0.44614
0.44614
0.446203
0.446267
0.44633
0.446394
0.446394
0.446457
0.446521
0.446585
0.446648
0.446648
0.446712
0.446776
0.446839
0.446903
0.446903
0.446967
0.447031
0.447094
0.447158
0.447158
0.447222
0.447286
0.44735
0.447414
0.447414
0.447478
0.447542
0.447606
0.44767
0.44767
0.447734
0.447798
0.447862
0.447926
0.447926
0.447991
0.448055
0.448119
0.448183
0.448183
0.448248
0.448312
0.448376
0.448441
0.448441
0.448505
0.448569
0.448634
0.448698
0.448698
0.448763
0.448827
0.448892
0.448957
0.448957
0.449021
0.449086
0.449151
0.449215
0.449215
0.44928
0.449345
0.44941
0.449474
0.449474
0.449539
0.449604
0.449669
0.449734
0.449734
0.449799
0.449864
0.449929
0.449994
0.449994
0.450059
0.450124
0.450189
0.450254
0.450254
0.45032
0.450385
0.45045
0.450515
0.450515
0.45058
0.450646
0.450711
0.450776
0.450776
0.450842
0.450907
0.450973
0.451038
0.451038
0.451104
0.451169
0.451235
0.4513
0.4513
0.451366
0.451432
0.451497
0.451563
0.451563
0.451629
0.451694
0.45176
0.451826
0.451826
0.451892
0.451958
0.452023
0.452089
0.452089
0.452155
0.452221
0.452287
0.452353
0.452353
0.452419
0.452485
0.452551
0.452618
0.452618
0.452684
0.45275
0.452816
0.452882
0.452882
0.452949
0.453015
0.453081
0.453148
0.453148
0.453214
0.45328
0.453347
0.453413
0.453413
0.45348
0.453546
0.453613
0.453679
0.453679
0.453746
0.453812
0.453879
0.453946
0.453946
0.454012
0.454079
0.454146
0.454213
0.454213
0.454279
0.454346
0.454413
0.45448
0.45448
0.454547
0.454614
0.454681
0.454748
0.454748
0.454815
0.454882
0.454949
0.455016
0.455016
0.455083
0.45515
0.455218
0.455285
0.455285
0.455352
0.455419
0.455487
0.455554
0.455554
0.455621
0.455689
0.455756
0.455823
0.455823
0.455891
0.455958
0.456026
0.456093
0.456093
0.456161
0.456228
0.456296
0.456364
0.456364
0.456431
0.456499
0.456567
0.456635
0.456635
0.456702
0.45677
0.456838
0.456906
0.456906
0.456974
0.457042
0.45711
0.457178
0.457178
0.457246
0.457314
0.457382
0.45745
0.45745
0.457518
0.457586
0.457654
0.457722
0.457722
0.45779
0.457859
0.457927
0.457995
0.457995
0.458064
0.458132
0.4582
0.458269
0.458269
0.458337
0.458406
0.458474
0.458543
0.458543
0.458611
0.45868
0.458748
0.458817
0.458817
0.458886
0.458954
0.459023
0.459092
0.459092
0.45916
0.459229
0.459298
0.459367
0.459367
0.459436
0.459505
0.459574
0.459642
0.459642
0.459711
0.45978
0.459849
0.459919
0.459919
0.459988
0.460057
0.460126
0.460195
0.460195
0.460264
0.460333
0.460403
0.460472
0.460472
0.460541
0.460611
0.46068
0.460749
0.460749
0.460819
0.460888
0.460958
0.461027
0.461027
0.461097
0.461166
0.461236
0.461305
0.461305
0.461375
0.461445
0.461514
0.461584
0.461584
0.461654
0.461723
0.461793
0.461863
0.461863
0.461933
0.462003
0.462073
0.462143
0.462143
0.462212
0.462282
0.462352
0.462422
0.462422
0.462493
0.462563
0.462633
0.462703
0.462703
0.462773
0.462843
0.462913
0.462984
0.462984
0.463054
0.463124
0.463195
0.463265
0.463265
0.463335
0.463406
0.463476
0.463547
0.463547
0.463617
0.463688
0.463758
0.463829
0.463829
0.463899
0.46397
0.464041
0.464111
0.464111
0.464182
0.464253
0.464323
0.464394
0.464394
0.464465
0.464536
0.464607
0.464678
0.464678
0.464749
0.46482
0.464891
0.464962
0.464962
0.465033
0.465104
0.465175
0.465246
0.465246
0.465317
0.465388
0.465459
0.465531
0.465531
0.465602
0.465673
0.465744
0.465816
0.465816
0.465887
0.465958
0.46603
0.466101
0.466101
0.466173
0.466244
0.466316
0.466387
0.466387
0.466459
0.46653
0.466602
0.466674
0.466674
0.466745
0.466817
0.466889
0.466961
0.466961
0.467032
0.467104
0.467176
0.467248
0.467248
0.46732
0.467392
0.467464
0.467536
0.467536
0.467608
0.46768
0.467752
0.467824
0.467824
0.467896
0.467968
0.46804
0.468112
0.468112
0.468185
0.468257
0.468329
0.468401
0.468401
0.468474
0.468546
0.468619
0.468691
0.468691
0.468763
0.468836
0.468908
0.468981
0.468981
0.469053
0.469126
0.469199
0.469271
0.469271
0.469344
0.469417
0.469489
0.469562
0.469562
0.469635
0.469708
0.46978
0.469853
0.469853
0.469926
0.469999
0.470072
0.470145
0.470145
0.470218
0.470291
0.470364
0.470437
0.470437
0.47051
0.470583
0.470656
0.470729
0.470729
0.470803
0.470876
0.470949
0.471022
0.471022
0.471096
0.471169
0.471242
0.471316
0.471316
0.471389
0.471463
0.471536
0.47161
0.47161
0.471683
0.471757
0.47183
0.471904
0.471904
0.471977
0.472051
0.472125
0.472198
0.472198
0.472272
0.472346
0.47242
0.472494
0.472494
0.472567
0.472641
0.472715
0.472789
0.472789
0.472863
0.472937
0.473011
0.473085
0.473085
0.473159
0.473233
0.473307
0.473381
0.473381
0.473456
0.47353
0.473604
0.473678
0.473678
0.473753
0.473827
0.473901
0.473976
0.473976
0.47405
0.474124
0.474199
0.474273
0.474273
0.474348
0.474422
0.474497
0.474571
0.474571
0.474646
0.474721
0.474795
0.47487
0.47487
0.474945
0.475019
0.475094
0.475169
0.475169
0.475244
0.475319
0.475393
0.475468
0.475468
0.475543
0.475618
0.475693
0.475768
0.475768
0.475843
0.475918
0.475993
0.476069
0.476069
0.476144
0.476219