<?xml version="1.0"?>
<VTKFile type="UnstructuredGrid" version="0.1" byte_order="LittleEndian">
<UnstructuredGrid>
<Piece NumberOfPoints="5000" NumberOfCells="4000">
<PointData Scalars="Reaction 0">
<DataArray type="Float32" Name="Reaction 0" format="ascii">
0.660292
0.660292
0.660292
0.660292
0.660292
0.660292
0.660292
0.660292
0.660292
0.660292
0.660292
0.660292
0.660292
0.660292
0.660292
0.660292
0.660292
0.660292
0.660292
0.660292
0.660292
0.660292
0.660292
0.660293
0.660293
0.660293
0.660293
0.660293
0.660293
0.660293
0.660293
0.660293
0.660293
0.660293
0.660293
0.660293
0.660294
0.660294
0.660294
0.660294
0.660294
0.660294
0.660294
0.660294
0.660295
0.660295
0.660295
0.660295
0.660295
0.660295
0.660295
0.660295
0.660296
0.660296
0.660296
0.660296
0.660296
0.660296
0.660296
0.660297
0.660297
0.660297
0.660297
0.660297
0.660298
0.660298
0.660298
0.660298
0.660298
0.660298
0.660298
0.660299
0.660299
0.660299
0.660299
0.660299
0.6603
0.6603
0.6603
0.6603
0.6603
0.660301
0.660301
0.660301
0.660302
0.660302
0.660302
0.660302
0.660302
0.660303
0.660303
0.660303
0.660303
0.660304
0.660304
0.660304
0.660304
0.660305
0.660305
0.660305
0.660305
0.660306
0.660306
0.660306
0.660307
0.660307
0.660307
0.660307
0.660308
0.660308
0.660308
0.660309
0.660309
0.660309
0.66031
0.66031
0.66031
0.660311
0.660311
0.660311
0.660311
0.660312
0.660312
0.660313
0.660313
0.660313
0.660313
0.660314
0.660314
0.660315
0.660315
0.660315
0.660316
0.660316
0.660317
0.660317
0.660317
0.660317
0.660318
0.660318
0.660318
0.660319
0.660319
0.66032
0.66032
0.66032
0.660321
0.660321
0.660322
0.660322
0.660322
0.660323
0.660323
0.660324
0.660324
0.660324
0.660325
0.660325
0.660326
0.660327
0.660327
0.660327
0.660328
0.660328
0.660329
0.660329
0.660329
0.66033
0.66033
0.660331
0.660331
0.660332
0.660332
0.660333
0.660333
0.660333
0.660334
0.660335
0.660335
0.660336
0.660336
0.660336
0.660337
0.660338
0.660338
0.660338
0.660339
0.660339
0.66034
0.660341
0.660341
0.660341
0.660342
0.660343
0.660343
0.660343
0.660344
0.660345
0.660345
0.660346
0.660346
0.660347
0.660347
0.660348
0.660349
0.660349
0.66035
0.66035
0.660351
0.660352
0.660352
0.660352
0.660353
0.660354
0.660355
0.660355
0.660355
0.660356
0.660357
0.660357
0.660357
0.660358
0.660359
0.66036
0.66036
0.66036
0.660361
0.660362
0.660363
0.660364
0.660364
0.660364
0.660365
0.660366
0.660367
0.660367
0.660368
0.660368
0.660369
0.66037
0.66037
0.660371
0.660372
0.660372
0.660373
0.660373
0.660374
0.660375
0.660376
0.660377
0.660377
0.660377
0.660378
0.660379
0.66038
0.66038
0.660381
0.660382
0.660383
0.660384
0.660384
0.660384
0.660385
0.660386
0.660387
0.660387
0.660388
0.660389
0.66039
0.660391
0.660391
0.660392
0.660393
0.660393
0.660394
0.660394
0.660395
0.660396
0.660397
0.660398
0.660398
0.660399
0.6604
0.660401
0.660402
0.660402
0.660403
0.660404
0.660405
0.660406
0.660406
0.660407
0.660408
0.660409
0.66041
0.66041
0.660411
0.660412
0.660413
0.660414
0.660414
0.660415
0.660416
0.660417
0.660418
0.660418
0.660419
0.66042
0.660421
0.660422
0.660422
0.660423
0.660424
0.660425
0.660426
0.660426
0.660428
0.660429
0.66043
0.660431
0.660431
0.660432
0.660433
0.660434
0.660435
0.660435
0.660436
0.660437
0.660439
0.66044
0.66044
0.660441
0.660442
0.660443
0.660444
0.660444
0.660445
0.660446
0.660448
0.660449
0.660449
0.66045
0.660451
0.660452
0.660453
0.660453
0.660455
0.660456
0.660457
0.660458
0.660458
0.660459
0.66046
0.660462
0.660463
0.660463
0.660464
0.660465
0.660467
0.660468
0.660468
0.660469
0.66047
0.660471
0.660473
0.660473
0.660474
0.660475
0.660476
0.660478
0.660478
0.660479
0.66048
0.660481
0.660483
0.660483
0.660484
0.660485
0.660487
0.660488
0.660488
0.660489
0.66049
0.660492
0.660493
0.660493
0.660494
0.660496
0.660497
0.660498
0.660498
0.6605
0.660501
0.660502
0.660504
0.660504
0.660505
0.660506
0.660508
0.660509
0.660509
0.66051
0.660512
0.660513
0.660515
0.660515
0.660516
0.660517
0.660519
0.66052
0.66052
0.660521
0.660523
0.660524
0.660526
0.660526
0.660527
0.660529
0.66053
0.660531
0.660531
0.660533
0.660534
0.660536
0.660537
0.660537
0.660539
0.66054
0.660541
0.660543
0.660543
0.660544
0.660546
0.660547
0.660549
0.660549
0.66055
0.660552
0.660553
0.660555
0.660555
0.660556
0.660558
0.660559
0.660561
0.660561
0.660562
0.660564
0.660565
0.660567
0.660567
0.660568
0.66057
0.660571
0.660573
0.660573
0.660575
0.660576
0.660578
0.660579
0.660579
0.660581
0.660582
0.660584
0.660586
0.660586
0.660587
0.660589
0.66059
0.660592
0.660592
0.660593
0.660595
0.660597
0.660598
0.660598
0.6606
0.660602
0.660603
0.660605
0.660605
0.660606
0.660608
0.66061
0.660611
0.660611
0.660613
0.660615
0.660616
0.660618
0.660618
0.66062
0.660621
0.660623
0.660625
0.660625
0.660626
0.660628
0.66063
0.660631
0.660631
0.660633
0.660635
0.660637
0.660638
0.660638
0.66064
0.660642
0.660644
0.660645
0.660645
0.660647
0.660649
0.66065
0.660652
0.660652
0.660654
0.660656
0.660658
0.660659
0.660659
0.660661
0.660663
0.660665
0.660666
0.660666
0.660668
0.66067
0.660672
0.660674
0.660674
0.660675
0.660677
0.660679
0.660681
0.660681
0.660683
0.660684
0.660686
0.660688
0.660688
0.66069
0.660692
0.660694
0.660696
0.660696
0.660697
0.660699
0.660701
0.660703
0.660703
0.660705
0.660707
0.660709
0.660711
0.660711
0.660712
0.660714
0.660716
0.660718
0.660718
0.66072
0.660722
0.660724
0.660726
0.660726
0.660728
0.66073
0.660732
0.660734
0.660734
0.660735
0.660737
0.660739
0.660741
0.660741
0.660743
0.660745
0.660747
0.660749
0.660749
0.660751
0.660753
0.660755
0.660757
0.660757
0.660759
0.660761
0.660763
0.660765
0.660765
0.660767
0.660769
0.660771
0.660773
0.660773
0.660775
0.660777
0.660779
0.660781
0.660781
0.660783
0.660785
0.660788
0.66079
0.66079
0.660792
0.660794
0.660796
0.660798
0.660798
0.6608
0.660802
0.660804
0.660806
0.660806
0.660808
0.66081
0.660813
0.660815
0.660815
0.660817
0.660819
0.660821
0.660823
0.660823
0.660825
0.660827
0.66083
0.660832
0.660832
0.660834
0.660836
0.660838
0.66084
0.66084
0.660842
0.660845
0.660847
0.660849
0.660849
0.660851
0.660853
0.660856
0.660858
0.660858
0.66086
0.660862
0.660864
0.660867
0.660867
0.660869
0.660871
0.660873
0.660876
0.660876
0.660878
0.66088
0.660882
0.660884
0.660884
0.660887
0.660889
0.660891
0.660894
0.660894
0.660896
0.660898
0.6609
0.660903
0.660903
0.660905
0.660907
0.660909
0.660912
0.660912
0.660914
0.660916
0.660919
0.660921
0.660921
0.660923
0.660926
0.660928
0.66093
0.66093
0.660933
0.660935
0.660937
0.66094
0.66094
0.660942
0.660944
0.660947
0.660949
0.660949
0.660952
0.660954
0.660956
0.660959
0.660959
0.660961
0.660964
0.660966
0.660968
0.660968
0.660971
0.660973
0.660976
0.660978
0.660978
0.66098
0.660983
0.660985
0.660988
0.660988
0.66099
0.660993
0.660995
0.660998
0.660998
0.661
0.661002
0.661005
0.661007
0.661007
0.66101
0.661012
0.661015
0.661017
0.661017
0.66102
0.661022
0.661025
0.661027
0.661027
0.66103
0.661032
0.661035
0.661037
0.661037
0.66104
0.661043
0.661045
0.661048
0.661048
0.66105
0.661053
0.661055
0.661058
0.661058
0.66106
0.661063
0.661066
0.661068
0.661068
0.661071
0.661073
0.661076
0.661078
0.661078
0.661081
0.661084
0.661086
0.661089
0.661089
0.661092
0.661094
0.661097
0.661099
0.661099
0.661102
0.661105
0.661107
0.66111
0.66111
0.661113
0.661115
0.661118
0.661121
0.661121
0.661123
0.661126
0.661129
0.661131
0.661131
0.661134
0.661137
0.661139
0.661142
0.661142
0.661145
0.661148
0.66115
0.661153
0.661153
0.661156
0.661158
0.661161
0.661164
0.661164
0.661167
0.661169
0.661172
0.661175
0.661175
0.661178
0.66118
0.661183
0.661186
0.661186
0.661189
0.661191
0.661194
0.661197
0.661197
0.6612
0.661203
0.661205
0.661208
0.661208
0.661211
0.661214
0.661217
0.661219
0.661219
0.661222
0.661225
0.661228
0.661231
0.661231
0.661234
0.661237
0.661239
0.661242
0.661242
0.661245
0.661248
0.661251
0.661254
0.661254
0.661257
0.661259
0.661262
0.661265
0.661265
0.661268
0.661271
0.661274
0.661277
0.661277
0.66128
0.661283
0.661286
0.661289
0.661289
0.661291
0.661294
0.661297
0.6613
0.6613
0.661303
0.661306
0.661309
0.661312
0.661312
0.661315
0.661318
0.661321
0.661324
0.661324
0.661327
0.66133
0.661333
0.661336
0.661336
0.661339
0.661342
0.661345
0.661348
0.661348
0.661351
0.661354
0.661357
0.66136
0.66136
0.661363
0.661366
0.661369
0.661372
0.661372
0.661375
0.661378
0.661381
0.661385
0.661385
0.661388
0.661391
0.661394
0.661397
0.661397
0.6614
0.661403
0.661406
0.661409
0.661409
0.661412
0.661415
0.661419
0.661422
0.661422
0.661425
0.661428
0.661431
0.661434
0.661434
0.661437
0.661441
0.661444
0.661447
0.661447
0.66145
0.661453
0.661456
0.661459
0.661459
0.661463
0.661466
0.661469
0.661472
0.661472
0.661475
0.661479
0.661482
0.661485
0.661485
0.661488
0.661491
0.661495
0.661498
0.661498
0.661501
0.661504
0.661508
0.661511
0.661511
0.661514
0.661517
0.661521
0.661524
0.661524
0.661527
0.66153
0.661534
0.661537
0.661537
0.66154
0.661544
0.661547
0.66155
0.66155
0.661553
0.661557
0.66156
0.661563
0.661563
0.661567
0.66157
0.661573
0.661577
0.661577
0.66158
0.661583
0.661587
0.66159
0.66159
0.661593
0.661597
0.6616
0.661603
0.661603
0.661607
0.66161
0.661614
0.661617
0.661617
0.66162
0.661624
0.661627
0.661631
0.661631
0.661634
0.661637
0.661641
0.661644
0.661644
0.661648
0.661651
0.661654
0.661658
0.661658
0.661661
0.661665
0.661668
0.661672
0.661672
0.661675
0.661679
0.661682
0.661686
0.661686
0.661689
0.661693
0.661696
0.6617
0.6617
0.661703
0.661707
0.66171
0.661714
0.661714
0.661717
0.661721
0.661724
0.661728
0.661728
0.661731
0.661735
0.661738
0.661742
0.661742
0.661745
0.661749
0.661752
0.661756
0.661756
0.66176
0.661763
0.661767
0.66177
0.66177
0.661774
0.661777
0.661781
0.661785
0.661785
0.661788
0.661792
0.661795
0.661799
0.661799
0.661803
0.661806
0.66181
0.661814
0.661814
0.661817
0.661821
0.661824
0.661828
0.661828
0.661832
0.661835
0.661839
0.661843
0.661843
0.661846
0.66185
0.661854
0.661858
0.661858
0.661861
0.661865
0.661869
0.661872
0.661872
0.661876
0.66188
0.661883
0.661887
0.661887
0.661891
0.661895
0.661898
0.661902
0.661902
0.661906
0.66191
0.661913
0.661917
0.661917
0.661921
0.661925
0.661928
0.661932
0.661932
0.661936
0.66194
0.661944
0.661947
0.661947
0.661951
0.661955
0.661959
0.661962
0.661962
0.661966
0.66197
0.661974
0.661978
0.661978
0.661982
0.661985
0.661989
0.661993
0.661993
0.661997
0.662001
0.662005
0.662009
0.662009
0.662012
0.662016
0.66202
0.662024
0.662024
0.662028
0.662032
0.662036
0.66204
0.66204
0.662044
0.662048
0.662051
0.662055
0.662055
0.662059
0.662063
0.662067
0.662071
0.662071
0.662075
0.662079
0.662083
0.662087
0.662087
0.662091
0.662095
0.662099
0.662103
0.662103
0.662107
0.662111
0.662115
0.662119
0.662119
0.662123
0.662127
0.662131
0.662135
0.662135
0.662139
0.662143
0.662147
0.662151
0.662151
0.662155
0.662159
0.662163
0.662167
0.662167
0.662171
0.662175
0.662179
0.662183
0.662183
0.662187
0.662191
0.662195
0.662199
0.662199
0.662203
0.662208
0.662212
0.662216
0.662216
0.66222
0.662224
0.662228
0.662232
0.662232
0.662236
0.66224
0.662245
0.662249
0.662249
0.662253
0.662257
0.662261
0.662265
0.662265
0.662269
0.662274
0.662278
0.662282
0.662282
0.662286
0.66229
0.662294
0.662299
0.662299
0.662303
0.662307
0.662311
0.662315
0.662315
0.66232
0.662324
0.662328
0.662332
0.662332
0.662337
0.662341
0.662345
0.662349
0.662349
0.662353
0.662358
0.662362
0.662366
0.662366
0.66237
0.662375
0.662379
0.662383
0.662383
0.662388
0.662392
0.662396
0.6624
0.6624
0.662405
0.662409
0.662413
0.662418
0.662418
0.662422
0.662426
0.662431
0.662435
0.662435
0.662439
0.662444
0.662448
0.662452
0.662452
0.662457
0.662461
0.662465
0.66247
0.66247
0.662474
0.662479
0.662483
0.662487
0.662487
0.662492
0.662496
0.662501
0.662505
0.662505
0.662509
0.662514
0.662518
0.662523
0.662523
0.662527
0.662531
0.662536
0.66254
0.66254
0.662545
0.662549
0.662554
0.662558
0.662558
0.662563
0.662567
0.662572
0.662576
0.662576
0.66258
0.662585
0.662589
0.662594
0.662594
0.662598
0.662603
0.662607
0.662612
0.662612
0.662617
0.662621
0.662626
0.66263
0.66263
0.662635
0.662639
0.662644
0.662648
0.662648
0.662653
0.662657
0.662662
0.662667
0.662667
0.662671
0.662676
0.66268
0.662685
0.662685
0.662689
0.662694
0.662699
0.662703
0.662703
0.662708
0.662712
0.662717
0.662722
0.662722
0.662726
0.662731
0.662736
0.66274
0.66274
0.662745
0.662749
0.662754
0.662759
0.662759
0.662763
0.662768
0.662773
0.662778
0.662778
0.662782
0.662787
0.662792
0.662796
0.662796
0.662801
0.662806
0.66281
0.662815
0.662815
0.66282
0.662825
0.662829
0.662834
0.662834
0.662839
0.662843
0.662848
0.662853
0.662853
0.662858
0.662862
0.662867
0.662872
0.662872
0.662877
0.662882
0.662886
0.662891
0.662891
0.662896
0.662901
0.662906
0.66291
0.66291
0.662915
0.66292
0.662925
0.66293
0.66293
0.662934
0.662939
0.662944
0.662949
0.662949
0.662954
0.662959
0.662964
0.662968
0.662968
0.662973
0.662978
0.662983
0.662988
0.662988
0.662993
0.662998
0.663003
0.663007
0.663007
0.663012
0.663017
0.663022
0.663027
0.663027
0.663032
0.663037
0.663042
0.663047
0.663047
0.663052
0.663057
0.663062
0.663067
0.663067
0.663071
0.663076
0.663081
0.663086
0.663086
0.663091
0.663096
0.663101
0.663106
0.663106
0.663111
0.663116
0.663121
0.663126
0.663126
0.663131
0.663136
0.663141
0.663146
0.663146
0.663151
0.663156
0.663162
0.663167
0.663167
0.663172
0.663177
0.663182
0.663187
0.663187
0.663192
0.663197
0.663202
0.663207
0.663207
0.663212
0.663217
0.663222
0.663227
0.663227
0.663233
0.663238
0.663243
0.663248
0.663248
0.663253
0.663258
0.663263
0.663268
0.663268
0.663274
0.663279
0.663284
0.663289
0.663289
0.663294
0.663299
0.663305
0.66331
0.66331
0.663315
0.66332
0.663325
0.66333
0.66333
0.663336
0.663341
0.663346
0.663351
0.663351
0.663356
0.663362
0.663367
0.663372
0.663372
0.663377
0.663383
0.663388
0.663393
0.663393
0.663398
0.663404
0.663409
0.663414
0.663414
0.663419
0.663425
0.66343
0.663435
0.663435
0.663441
0.663446
0.663451
0.663457
0.663457
0.663462
0.663467
0.663472
0.663478
0.663478
0.663483
0.663488
0.663494
0.663499
0.663499
0.663504
0.66351
0.663515
0.663521
0.663521
0.663526
0.663531
0.663537
0.663542
0.663542
0.663547
0.663553
0.663558
0.663564
0.663564
0.663569
0.663574
0.66358
0.663585
0.663585
0.663591
0.663596
0.663602
0.663607
0.663607
0.663612
0.663618
0.663623
0.663629
0.663629
0.663634
0.66364
0.663645
0.663651
0.663651
0.663656
0.663662
0.663667
0.663673
0.663673
0.663678
0.663684
0.663689
0.663695
0.663695
0.6637
0.663706
0.663711
0.663717
0.663717
0.663722
0.663728
0.663733
0.663739
0.663739
0.663744
0.66375
0.663755
0.663761
0.663761
0.663767
0.663772
0.663778
0.663783
0.663783
0.663789
0.663795
0.6638
0.663806
0.663806
0.663811
0.663817
0.663823
0.663828
0.663828
0.663834
0.663839
0.663845
0.663851
0.663851
0.663856
0.663862
0.663868
0.663873
0.663873
0.663879
0.663885
0.66389
0.663896
0.663896
0.663902
0.663907
0.663913
0.663919
0.663919
0.663925
0.66393
0.663936
0.663942
0.663942
0.663947
0.663953
0.663959
0.663965
0.663965
0.66397
0.663976
0.663982
0.663988
0.663988
0.663993
0.663999
0.664005
0.664011
0.664011
0.664016
0.664022
0.664028
0.664034
0.664034
0.66404
0.664045
0.664051
0.664057
0.664057
0.664063
0.664069
0.664075
0.66408
0.66408
0.664086
0.664092
0.664098
0.664104
0.664104
0.66411
0.664115
0.664121
0.664127
0.664127
0.664133
0.664139
0.664145
0.664151
0.664151
0.664157
0.664162
0.664168
0.664174
0.664174
0.66418
0.664186
0.664192
0.664198
0.664198
0.664204
0.66421
0.664216
0.664222
0.664222
0.664228
0.664234
0.66424
0.664246
0.664246
0.664252
0.664258
0.664263
0.664269
0.664269
0.664275
0.664281
0.664287
0.664293
0.664293
0.664299
0.664305
0.664311
0.664317
0.664317
0.664324
0.66433
0.664336
0.664342
0.664342
0.664348
0.664354
0.66436
0.664366
0.664366
0.664372
0.664378
0.664384
0.66439
0.66439
0.664396
0.664402
0.664408
0.664415
0.664415
0.664421
0.664427
0.664433
0.664439
0.664439
0.664445
0.664451
0.664457
0.664463
0.664463
0.66447
0.664476
0.664482
0.664488
0.664488
0.664494
0.6645
0.664507
0.664513
0.664513
0.664519
0.664525
0.664531
0.664537
0.664537
0.664544
0.66455
0.664556
0.664562
0.664562
0.664569
0.664575
0.664581
0.664587
0.664587
0.664593
0.6646
0.664606
0.664612
0.664612
0.664618
0.664625
0.664631
0.664637
0.664637
0.664644
0.66465
0.664656
0.664662
0.664662
0.664669
0.664675
0.664681
0.664688
0.664688
0.664694
0.6647
0.664707
0.664713
0.664713
0.664719
0.664726
0.664732
0.664738
0.664738
0.664745
0.664751
0.664757
0.664764
0.664764
0.66477
0.664776
0.664783
0.664789
0.664789
0.664796
0.664802
0.664808
0.664815
0.664815
0.664821
0.664828
0.664834
0.66484
0.66484
0.664847
0.664853
0.66486
0.664866
0.664866
0.664873
0.664879
0.664886
0.664892
0.664892
0.664899
0.664905
0.664911
0.664918
0.664918
0.664924
0.664931
0.664937
0.664944
0.664944
0.66495
0.664957
0.664963
0.66497
0.66497
0.664977
0.664983
0.66499
0.664996
0.664996
0.665003
0.665009
0.665016
0.665022
0.665022
0.665029
0.665035
0.665042
0.665049
0.665049
0.665055
0.665062
0.665068
0.665075
0.665075
0.665082
0.665088
0.665095
0.665101
0.665101
0.665108
0.665115
0.665121
0.665128
0.665128
0.665135
0.665141
0.665148
0.665155
0.665155
0.665161
0.665168
0.665175
0.665181
0.665181
0.665188
0.665195
0.665201
0.665208
0.665208
0.665215
0.665221
0.665228
0.665235
0.665235
0.665242
0.665248
0.665255
0.665262
0.665262
0.665269
0.665275
0.665282
0.665289
0.665289
0.665296
0.665302
0.665309
0.665316
0.665316
0.665323
0.665329
0.665336
0.665343
0.665343
0.66535
0.665357
0.665363
0.66537
0.66537
0.665377
0.665384
0.665391
0.665398
0.665398
0.665404
0.665411
0.665418
0.665425
0.665425
0.665432
0.665439
0.665446
0.665452
0.665452
0.665459
0.665466
0.665473
0.66548
0.66548
0.665487
0.665494
0.665501
0.665508
0.665508
0.665515
0.665521
0.665528
0.665535
0.665535
0.665542
0.665549
0.665556
0.665563
0.665563
0.66557
0.665577
0.665584
0.665591
0.665591
0.665598
0.665605
0.665612
0.665619
0.665619
0.665626
0.665633
0.66564
0.665647
0.665647
0.665654
0.665661
0.665668
0.665675
0.665675
0.665682
0.665689
0.665696
0.665703
0.665703
0.66571
0.665717
0.665724
0.665731
0.665731
0.665739
0.665746
0.665753
0.66576
0.66576
0.665767
0.665774
0.665781
0.665788
0.665788
0.665795
0.665802
0.66581
0.665817
0.665817
0.665824
0.665831
0.665838
0.665845
0.665845
0.665852
0.66586
0.665867
0.665874
0.665874
0.665881
0.665888
0.665896
0.665903
0.665903
0.66591
0.665917
0.665924
0.665932
0.665932
0.665939
0.665946
0.665953
0.66596
0.66596
0.665968
0.665975
0.665982
0.665989
0.665989
0.665997
0.666004
0.666011
0.666018
0.666018
0.666026
0.666033
0.66604
0.666048
0.666048
0.666055
0.666062
0.666069
0.666077
0.666077
0.666084
0.666091
0.666099
0.666106
0.666106
0.666113
0.666121
0.666128
0.666135
0.666135
0.666143
0.66615
0.666158
0.666165
0.666165
0.666172
0.66618
0.666187
0.666194
0.666194
0.666202
0.666209
0.666217
0.666224
0.666224
0.666231
0.666239
0.666246
0.666254
0.666254
0.666261
0.666269
0.666276
0.666284
0.666284
0.666291
0.666298
0.666306
0.666313
0.666313
0.666321
0.666328
0.666336
0.666343
0.666343
0.666351
0.666358
0.666366
0.666373
0.666373
0.666381
0.666388
0.666396
0.666403
0.666403
0.666411
0.666419
0.666426
0.666434
0.666434
0.666441
0.666449
0.666456
0.666464
0.666464
0.666471
0.666479
0.666487
0.666494
0.666494
0.666502
0.666509
0.666517
0.666525
0.666525
0.666532
0.66654
0.666548
0.666555
0.666555
0.666563
0.66657
0.666578
0.666586
0.666586
0.666593
0.666601
0.666609
0.666616
0.666616
0.666624
0.666632
0.666639
0.666647
0.666647
0.666655
0.666663
0.66667
0.666678
0.666678
0.666686
0.666693
0.666701
0.666709
0.666709
0.666717
0.666724
0.666732
0.66674
0.66674
0.666748
0.666755
0.666763
0.666771
0.666771
0.666779
0.666787
0.666794
0.666802
0.666802
0.66681
0.666818
0.666826
0.666833
0.666833
0.666841
0.666849
0.666857
0.666865
0.666865
0.666872
0.66688
0.666888
0.666896
0.666896
0.666904
0.666912
0.66692
0.666928
0.666928
0.666935
0.666943
0.666951
0.666959
0.666959
0.666967
0.666975
0.666983
0.666991
0.666991
0.666999
0.667007
0.667014
0.667022
0.667022
0.66703
0.667038
0.667046
0.667054
0.667054
0.667062
0.66707
0.667078
0.667086
0.667086
0.667094
0.667102
0.66711
0.667118
0.667118
0.667126
0.667134
0.667142
0.66715
0.66715
0.667158
0.667166
0.667174
0.667182
0.667182
0.66719
0.667198
0.667206
0.667214
0.667214
0.667223
0.667231
0.667239
0.667247
0.667247
0.667255
0.667263
0.667271
0.667279
0.667279
0.667287
0.667295
0.667304
0.667312
0.667312
0.66732
0.667328
0.667336
0.667344
0.667344
0.667352
0.66736
0.667369
0.667377
0.667377
0.667385
0.667393
0.667401
0.66741
0.66741
0.667418
0.667426
0.667434
0.667442
0.667442
0.667451
0.667459
0.667467
0.667475
0.667475
0.667483
0.667492
0.6675
0.667508
0.667508
0.667516
0.667525
0.667533
0.667541
0.667541
0.667549
0.667558
0.667566
0.667574
0.667574
0.667583
0.667591
0.667599
0.667608
0.667608
0.667616
0.667624
0.667633
0.667641
0.667641
0.667649
0.667658
0.667666
0.667674
0.667674
0.667683
0.667691
0.667699
0.667708
0.667708
0.667716
0.667724
0.667733
0.667741
0.667741
0.66775
0.667758
0.667766
0.667775
0.667775
0.667783
0.667792
0.6678
0.667809
0.667809
0.667817
0.667825
0.667834
0.667842
0.667842
0.667851
0.667859
0.667868
0.667876
0.667876
0.667885
0.667893
0.667902
0.66791
0.66791
0.667919
0.667927
0.667936
0.667944
0.667944
0.667953
0.667961
0.66797
0.667978
0.667978
0.667987
0.667995
0.668004
0.668013
0.668013
0.668021
0.66803
0.668038
0.668047
0.668047
0.668055
0.668064
0.668073
0.668081
0.668081
0.66809
0.668098
0.668107
0.668116
0.668116
0.668124
0.668133
0.668142
0.66815
0.66815
0.668159
0.668168
0.668176
0.668185
0.668185
0.668194
0.668202
0.668211
0.66822
0.66822
0.668228
0.668237
0.668246
0.668254
0.668254
0.668263
0.668272
0.668281
0.668289
0.668289
0.668298
0.668307
0.668316
0.668324
0.668324
0.668333
0.668342
0.668351
0.668359
0.668359
0.668368
0.668377
0.668386
0.668394
0.668394
0.668403
0.668412
0.668421
0.66843
0.66843
0.668438
0.668447
0.668456
0.668465
0.668465
0.668474
0.668483
0.668492
0.6685
0.6685
0.668509
0.668518
0.668527
0.668536
0.668536
0.668545
0.668554
0.668563
0.668571
0.668571
0.66858
0.668589
0.668598
0.668607
0.668607
0.668616
0.668625
0.668634
0.668643
0.668643
0.668652
0.668661
0.66867
0.668679
0.668679
0.668688
0.668697
0.668706
0.668715
0.668715
0.668724
0.668732
0.668741
0.66875
0.66875
0.668759
0.668768
0.668778
0.668787
0.668787
0.668796
0.668805
0.668814
0.668823
0.668823
0.668832
0.668841
0.66885
0.668859
0.668859
0.668868
0.668877
0.668886
0.668895
0.668895
0.668904
0.668914
0.668923
0.668932
0.668932
0.668941
0.66895
0.668959
0.668968
0.668968
0.668977
0.668987
0.668996
0.669005
0.669005
0.669014
0.669023
0.669032
0.669042
0.669042
0.669051
0.66906
0.669069
0.669078
0.669078
0.669087
0.669097
0.669106
0.669115
0.669115
0.669124
0.669134
0.669143
0.669152
0.669152
0.669161
0.669171
0.66918
0.669189
0.669189
0.669198
0.669208
0.669217
0.669226
0.669226
0.669235
0.669245
0.669254
0.669263
0.669263
0.669273
0.669282
0.669291
0.669301
0.669301
0.66931
0.669319
0.669329
0.669338
0.669338
0.669347
0.669357
0.669366
0.669375
0.669375
0.669385
0.669394
0.669404
0.669413
0.669413
0.669422
0.669432
0.669441
0.669451
0.669451
0.66946
0.669469
0.669479
0.669488
0.669488
0.669498
0.669507
0.669517
0.669526
0.669526
0.669536
0.669545
0.669555
0.669564
0.669564
0.669573
0.669583
0.669592
0.669602
0.669602
0.669611
0.669621
0.66963
0.66964
0.66964
0.66965
0.669659
0.669669
0.669678
0.669678
0.669688
0.669697
0.669707
0.669716
0.669716
0.669726
0.669736
0.669745
0.669755
0.669755
0.669764
0.669774
0.669784
0.669793
0.669793
0.669803
0.669812
0.669822
0.669832
0.669832
0.669841
0.669851
0.669861
0.66987
0.66987
0.66988
0.66989
0.669899
0.669909
0.669909
0.669919
0.669928
0.669938
0.669948
0.669948
0.669957
0.669967
0.669977
0.669986
0.669986
0.669996
0.670006
0.670016
0.670025
0.670025
0.670035
0.670045
0.670055
0.670064
0.670064
0.670074
0.670084
0.670094
0.670104
0.670104
0.670113
0.670123
0.670133
0.670143
0.670143
0.670153
0.670162
0.670172
0.670182
0.670182
0.670192
0.670202
0.670212
0.670221
0.670221
0.670231
0.670241
0.670251
0.670261
0.670261
0.670271
0.670281
0.670291
0.6703
0.6703
0.67031
0.67032
0.67033
0.67034
0.67034
0.67035
0.67036
0.67037
0.67038
0.67038
0.67039
0.6704
0.67041
0.67042
0.67042
0.67043
0.67044
0.67045
0.67046
0.67046
0.67047
0.67048
0.67049
0.6705
0.6705
0.67051
0.67052
0.67053
0.67054
0.67054
0.67055
0.67056
0.67057
0.67058
0.67058
0.67059
0.6706
0.67061
0.67062
0.67062
0.67063
0.67064
0.67065
0.67066
0.67066
0.670671
0.670681
0.670691
0.670701
0.670701
0.670711
0.670721
0.670731
0.670741
0.670741
0.670752
0.670762
0.670772
0.670782
0.670782
0.670792
0.670802
0.670813
0.670823
0.670823
0.670833
0.670843
0.670853
0.670864
0.670864
0.670874
0.670884
0.670894
0.670904
0.670904
0.670915
0.670925
0.670935
0.670945
0.670945
0.670956
0.670966
0.670976
0.670986
0.670986
0.670997
0.671007
0.671017
0.671028
0.671028
0.671038
0.671048
0.671059
0.671069
0.671069
0.671079
0.671089
0.6711
0.67111
0.67111
0.671121
0.671131
0.671141
0.671152
0.671152
0.671162
0.671172
0.671183
0.671193
0.671193
0.671204
0.671214
0.671224
0.671235
0.671235
0.671245
0.671256
0.671266
0.671276
0.671276
0.671287
0.671297
0.671308
0.671318
0.671318
0.671329
0.671339
0.67135
0.67136
0.67136
0.671371
0.671381
0.671392
0.671402
0.671402
0.671413
0.671423
0.671434
0.671444
0.671444
0.671455
0.671465
0.671476
0.671486
0.671486
0.671497
0.671507
0.671518
0.671529
0.671529
0.671539
0.67155
0.67156
0.671571
0.671571
0.671581
0.671592
0.671603
0.671613
0.671613
0.671624
0.671635
0.671645
0.671656
0.671656
0.671666
0.671677
0.671688
0.671698
0.671698
0.671709
0.67172
0.67173
0.671741
0.671741
0.671752
0.671763
0.671773
0.671784
0.671784
0.671795
0.671805
0.671816
0.671827
0.671827
0.671838
0.671848
0.671859
0.67187
0.67187
0.671881
0.671891
0.671902
0.671913
0.671913
0.671924
0.671934
0.671945
0.671956
0.671956
0.671967
0.671978
0.671988
0.671999
0.671999
0.67201
0.672021
0.672032
0.672043
0.672043
0.672053
0.672064
0.672075
0.672086
0.672086
0.672097
0.672108
0.672119
0.67213
0.67213
0.67214
0.672151
0.672162
0.672173
0.672173
0.672184
0.672195
0.672206
0.672217
0.672217
0.672228
0.672239
0.67225
0.672261
0.672261
0.672272
0.672283
0.672294
0.672305
0.672305
0.672316
0.672327
0.672338
0.672349
0.672349
0.67236
0.672371
0.672382
0.672393
0.672393
0.672404
0.672415
0.672426
0.672437
0.672437
0.672448
0.672459
0.67247
0.672481
0.672481
0.672492
0.672503
0.672514
0.672525
0.672525
0.672536
0.672548
0.672559
0.67257
0.67257
0.672581
0.672592
0.672603
0.672614
0.672614
0.672626
0.672637
0.672648
0.672659
0.672659
0.67267
0.672681
0.672693
0.672704
0.672704
0.672715
0.672726
0.672737
0.672749
0.672749
0.67276
0.672771
0.672782
0.672793
0.672793
0.672805
0.672816
0.672827
0.672838
0.672838
0.67285
0.672861
0.672872
0.672884
0.672884
0.672895
0.672906
0.672917
0.672929
0.672929
0.67294
0.672951
0.672963
0.672974
0.672974
0.672985
0.672997
0.673008
0.673019
0.673019
0.673031
0.673042
0.673054
0.673065
0.673065
0.673076
0.673088
0.673099
0.67311
0.67311
0.673122
0.673133
0.673145
0.673156
0.673156
0.673168
0.673179
0.67319
0.673202
0.673202
0.673213
0.673225
0.673236
0.673248
0.673248
0.673259
0.673271
0.673282
0.673294
0.673294
0.673305
0.673317
0.673328
0.67334
0.67334
0.673351
0.673363
0.673374
0.673386
0.673386
0.673397
0.673409
0.673421
0.673432
0.673432
0.673444
0.673455
0.673467
0.673478
0.673478
0.67349
0.673502
0.673513
0.673525
0.673525
0.673536
0.673548
0.67356
0.673571
0.673571
0.673583
0.673595
0.673606
0.673618
0.673618
0.67363
0.673641
0.673653
0.673665
0.673665
0.673676
0.673688
0.6737
0.673711
0.673711
0.673723
0.673735
0.673747
0.673758
0.673758
0.67377
0.673782
0.673794
0.673805
0.673805
0.673817
0.673829
0.673841
0.673852
0.673852
0.673864
0.673876
0.673888
0.6739
0.6739
0.673911
0.673923
0.673935
0.673947
0.673947
0.673959
0.673971
0.673982
0.673994
0.673994
0.674006
0.674018
0.67403
0.674042
0.674042
0.674054
0.674065
0.674077
0.674089
0.674089
0.674101
0.674113
0.674125
0.674137
0.674137
0.674149
0.674161
0.674173
0.674185
0.674185
0.674197
0.674209
0.674221
0.674233
0.674233
0.674245
0.674256
0.674268
0.67428
0.67428
0.674292
0.674305
0.674317
0.674329
0.674329
0.674341
0.674353
0.674365
0.674377
0.674377
0.674389
0.674401
0.674413
0.674425
0.674425
0.674437
0.674449
0.674461
0.674473
0.674473
0.674485
0.674497
0.67451
0.674522
0.674522
0.674534
0.674546
0.674558
0.67457
0.67457
0.674582
0.674594
0.674607
0.674619
0.674619
0.674631
0.674643
0.674655
0.674668
0.674668
0.67468
0.674692
0.674704
0.674716
0.674716
0.674729
0.674741
0.674753
0.674765
0.674765
0.674777
0.67479
0.674802
0.674814
0.674814
0.674827
0.674839
0.674851
0.674863
0.674863
0.674876
0.674888
0.6749
0.674913
0.674913
0.674925
0.674937
0.67495
0.674962
0.674962
0.674974
0.674987
0.674999
0.675011
0.675011
0.675024
0.675036
0.675048
0.675061
0.675061
0.675073
0.675086
0.675098
0.67511
0.67511
0.675123
0.675135
0.675148
0.67516
0.67516
0.675172
0.675185
0.675197
0.67521
0.67521
0.675222
0.675235
0.675247
0.67526
0.67526
0.675272
0.675285
0.675297
0.67531
0.67531
0.675322
0.675335
0.675347
0.67536
0.67536
0.675372
0.675385
0.675397
0.67541
0.67541
0.675423
0.675435
0.675448
0.67546
0.67546
0.675473
0.675485
0.675498
0.675511
0.675511
0.675523
0.675536
0.675548
0.675561
0.675561
0.675574
0.675586
0.675599
0.675612
0.675612
0.675624
0.675637
0.67565
0.675662
0.675662
0.675675
0.675688
0.6757
0.675713
0.675713
0.675726
0.675739
0.675751
0.675764
0.675764
0.675777
0.675789
0.675802
0.675815
0.675815
0.675828
0.675841
0.675853
0.675866
0.675866
0.675879
0.675892
0.675904
0.675917
0.675917
0.67593
0.675943
0.675956
0.675968
0.675968
0.675981
0.675994
0.676007
0.67602
0.67602
0.676033
0.676046
0.676058
0.676071
0.676071
0.676084
0.676097
0.67611
0.676123
0.676123
0.676136
0.676149
0.676162
0.676175
0.676175
0.676187
0.6762
0.676213
0.676226
0.676226
0.676239
0.676252
0.676265
0.676278
0.676278
0.676291
0.676304
0.676317
0.67633
0.67633
0.676343
0.676356
0.676369
0.676382
0.676382
0.676395
0.676408
0.676421
0.676434
0.676434
0.676447
0.67646
0.676474
0.676487
0.676487
0.6765
0.676513
0.676526
0.676539
0.676539
0.676552
0.676565
0.676578
0.676591
0.676591
0.676605
0.676618
0.676631
0.676644
0.676644
0.676657
0.67667
0.676684
0.676697
0.676697
0.67671
0.676723
0.676736
0.67675
0.67675