<?xml version="1.0"?>
<VTKFile type="UnstructuredGrid" version="0.1" byte_order="LittleEndian">
<UnstructuredGrid>
<Piece NumberOfPoints="5000" NumberOfCells="4000">
<PointData Scalars="Reaction 0">
<DataArray type="Float32" Name="Reaction 0" format="ascii">
0.9005
0.9005
0.9005
0.9005
0.9005
0.9005
0.9005
0.9005
0.9005
0.9005
0.9005
0.9005
0.9005
0.9005
0.9005
0.9005
0.9005
0.900501
0.900501
0.900501
0.900501
0.900501
0.900501
0.900501
0.900501
0.900501
0.900501
0.900501
0.900501
0.900501
0.900501
0.900501
0.900501
0.900501
0.900501
0.900501
0.900501
0.900501
0.900501
0.900502
0.900502
0.900502
0.900502
0.900502
0.900502
0.900502
0.900502
0.900502
0.900502
0.900502
0.900502
0.900502
0.900502
0.900503
0.900503
0.900503
0.900503
0.900503
0.900503
0.900503
0.900503
0.900503
0.900503
0.900503
0.900504
0.900504
0.900504
0.900504
0.900504
0.900504
0.900504
0.900504
0.900504
0.900505
0.900505
0.900505
0.900505
0.900505
0.900505
0.900505
0.900505
0.900505
0.900506
0.900506
0.900506
0.900506
0.900506
0.900506
0.900506
0.900507
0.900507
0.900507
0.900507
0.900507
0.900507
0.900507
0.900508
0.900508
0.900508
0.900508
0.900508
0.900508
0.900509
0.900509
0.900509
0.900509
0.900509
0.900509
0.90051
0.90051
0.90051
0.90051
0.90051
0.90051
0.900511
0.900511
0.900511
0.900511
0.900511
0.900512
0.900512
0.900512
0.900512
0.900512
0.900513
0.900513
0.900513
0.900513
0.900513
0.900514
0.900514
0.900514
0.900514
0.900514
0.900515
0.900515
0.900515
0.900515
0.900515
0.900516
0.900516
0.900516
0.900516
0.900517
0.900517
0.900517
0.900517
0.900517
0.900518
0.900518
0.900518
0.900518
0.900519
0.900519
0.900519
0.900519
0.90052
0.90052
0.90052
0.90052
0.90052
0.900521
0.900521
0.900521
0.900522
0.900522
0.900522
0.900522
0.900523
0.900523
0.900523
0.900523
0.900524
0.900524
0.900524
0.900524
0.900525
0.900525
0.900525
0.900526
0.900526
0.900526
0.900527
0.900527
0.900527
0.900527
0.900528
0.900528
0.900528
0.900529
0.900529
0.900529
0.900529
0.90053
0.90053
0.90053
0.900531
0.900531
0.900531
0.900532
0.900532
0.900532
0.900533
0.900533
0.900533
0.900533
0.900534
0.900534
0.900535
0.900535
0.900535
0.900535
0.900536
0.900536
0.900537
0.900537
0.900537
0.900538
0.900538
0.900538
0.900538
0.900539
0.900539
0.90054
0.90054
0.90054
0.900541
0.900541
0.900542
0.900542
0.900542
0.900542
0.900543
0.900543
0.900544
0.900544
0.900544
0.900545
0.900545
0.900546
0.900546
0.900546
0.900547
0.900547
0.900548
0.900548
0.900548
0.900549
0.900549
0.90055
0.90055
0.90055
0.900551
0.900551
0.900552
0.900552
0.900552
0.900553
0.900553
0.900554
0.900554
0.900554
0.900555
0.900555
0.900556
0.900556
0.900556
0.900557
0.900557
0.900558
0.900558
0.900558
0.900559
0.900559
0.90056
0.90056
0.90056
0.900561
0.900562
0.900562
0.900562
0.900563
0.900563
0.900564
0.900564
0.900564
0.900565
0.900565
0.900566
0.900567
0.900567
0.900567
0.900568
0.900568
0.900569
0.900569
0.900569
0.90057
0.900571
0.900571
0.900571
0.900572
0.900572
0.900573
0.900574
0.900574
0.900574
0.900575
0.900575
0.900576
0.900576
0.900577
0.900577
0.900578
0.900579
0.900579
0.900579
0.90058
0.90058
0.900581
0.900581
0.900582
0.900582
0.900583
0.900584
0.900584
0.900584
0.900585
0.900585
0.900586
0.900586
0.900587
0.900587
0.900588
0.900589
0.900589
0.900589
0.90059
0.900591
0.900591
0.900591
0.900592
0.900593
0.900593
0.900594
0.900594
0.900595
0.900595
0.900596
0.900597
0.900597
0.900598
0.900598
0.900599
0.9006
0.9006
0.9006
0.900601
0.900602
0.900602
0.900602
0.900603
0.900604
0.900605
0.900605
0.900605
0.900606
0.900607
0.900607
0.900608
0.900608
0.900609
0.90061
0.90061
0.900611
0.900611
0.900612
0.900613
0.900613
0.900614
0.900614
0.900615
0.900616
0.900616
0.900617
0.900617
0.900618
0.900619
0.900619
0.90062
0.90062
0.900621
0.900622
0.900623
0.900623
0.900623
0.900624
0.900625
0.900626
0.900626
0.900626
0.900627
0.900628
0.900629
0.90063
0.90063
0.90063
0.900631
0.900632
0.900633
0.900633
0.900634
0.900634
0.900635
0.900636
0.900636
0.900637
0.900638
0.900639
0.900639
0.900639
0.90064
0.900641
0.900642
0.900643
0.900643
0.900644
0.900644
0.900645
0.900646
0.900646
0.900647
0.900648
0.900649
0.900649
0.900649
0.90065
0.900651
0.900652
0.900653
0.900653
0.900654
0.900655
0.900656
0.900656
0.900656
0.900657
0.900658
0.900659
0.90066
0.90066
0.900661
0.900662
0.900663
0.900664
0.900664
0.900664
0.900665
0.900666
0.900667
0.900667
0.900668
0.900669
0.90067
0.900671
0.900671
0.900672
0.900673
0.900674
0.900674
0.900674
0.900675
0.900676
0.900677
0.900678
0.900678
0.900679
0.90068
0.900681
0.900682
0.900682
0.900683
0.900684
0.900685
0.900686
0.900686
0.900687
0.900688
0.900689
0.90069
0.90069
0.900691
0.900692
0.900692
0.900693
0.900693
0.900694
0.900695
0.900696
0.900697
0.900697
0.900698
0.900699
0.9007
0.900701
0.900701
0.900702
0.900703
0.900704
0.900705
0.900705
0.900706
0.900707
0.900708
0.900709
0.900709
0.90071
0.900711
0.900712
0.900713
0.900713
0.900715
0.900716
0.900717
0.900718
0.900718
0.900719
0.90072
0.900721
0.900722
0.900722
0.900723
0.900724
0.900725
0.900726
0.900726
0.900727
0.900728
0.900729
0.90073
0.90073
0.900731
0.900732
0.900733
0.900734
0.900734
0.900736
0.900737
0.900738
0.900739
0.900739
0.90074
0.900741
0.900742
0.900743
0.900743
0.900744
0.900745
0.900746
0.900748
0.900748
0.900749
0.90075
0.900751
0.900752
0.900752
0.900753
0.900754
0.900755
0.900756
0.900756
0.900758
0.900759
0.90076
0.900761
0.900761
0.900762
0.900763
0.900764
0.900766
0.900766
0.900767
0.900768
0.900769
0.90077
0.90077
0.900771
0.900772
0.900774
0.900775
0.900775
0.900776
0.900777
0.900778
0.900779
0.900779
0.900781
0.900782
0.900783
0.900784
0.900784
0.900785
0.900787
0.900788
0.900789
0.900789
0.90079
0.900791
0.900792
0.900794
0.900794
0.900795
0.900796
0.900797
0.900799
0.900799
0.9008
0.900801
0.900802
0.900803
0.900803
0.900805
0.900806
0.900807
0.900808
0.900808
0.90081
0.900811
0.900812
0.900813
0.900813
0.900815
0.900816
0.900817
0.900818
0.900818
0.90082
0.900821
0.900822
0.900823
0.900823
0.900825
0.900826
0.900827
0.900828
0.900828
0.90083
0.900831
0.900832
0.900833
0.900833
0.900835
0.900836
0.900837
0.900839
0.900839
0.90084
0.900841
0.900842
0.900844
0.900844
0.900845
0.900846
0.900848
0.900849
0.900849
0.90085
0.900852
0.900853
0.900854
0.900854
0.900856
0.900857
0.900858
0.90086
0.90086
0.900861
0.900862
0.900864
0.900865
0.900865
0.900866
0.900868
0.900869
0.90087
0.90087
0.900872
0.900873
0.900874
0.900876
0.900876
0.900877
0.900878
0.90088
0.900881
0.900881
0.900883
0.900884
0.900885
0.900887
0.900887
0.900888
0.900889
0.900891
0.900892
0.900892
0.900894
0.900895
0.900896
0.900898
0.900898
0.900899
0.900901
0.900902
0.900903
0.900903
0.900905
0.900906
0.900908
0.900909
0.900909
0.90091
0.900912
0.900913
0.900915
0.900915
0.900916
0.900918
0.900919
0.90092
0.90092
0.900922
0.900923
0.900925
0.900926
0.900926
0.900928
0.900929
0.900931
0.900932
0.900932
0.900934
0.900935
0.900936
0.900938
0.900938
0.900939
0.900941
0.900942
0.900944
0.900944
0.900945
0.900947
0.900948
0.90095
0.90095
0.900951
0.900953
0.900954
0.900956
0.900956
0.900957
0.900959
0.90096
0.900962
0.900962
0.900963
0.900965
0.900966
0.900968
0.900968
0.900969
0.900971
0.900972
0.900974
0.900974
0.900975
0.900977
0.900979
0.90098
0.90098
0.900982
0.900983
0.900985
0.900986
0.900986
0.900988
0.900989
0.900991
0.900992
0.900992
0.900994
0.900996
0.900997
0.900999
0.900999
0.901
0.901002
0.901003
0.901005
0.901005
0.901007
0.901008
0.90101
0.901011
0.901011
0.901013
0.901014
0.901016
0.901018
0.901018
0.901019
0.901021
0.901022
0.901024
0.901024
0.901026
0.901027
0.901029
0.90103
0.90103
0.901032
0.901034
0.901035
0.901037
0.901037
0.901039
0.90104
0.901042
0.901043
0.901043
0.901045
0.901047
0.901048
0.90105
0.90105
0.901052
0.901053
0.901055
0.901057
0.901057
0.901058
0.90106
0.901062
0.901063
0.901063
0.901065
0.901067
0.901068
0.90107
0.90107
0.901072
0.901073
0.901075
0.901077
0.901077
0.901078
0.90108
0.901082
0.901083
0.901083
0.901085
0.901087
0.901089
0.90109
0.90109
0.901092
0.901094
0.901095
0.901097
0.901097
0.901099
0.901101
0.901102
0.901104
0.901104
0.901106
0.901107
0.901109
0.901111
0.901111
0.901113
0.901114
0.901116
0.901118
0.901118
0.90112
0.901121
0.901123
0.901125
0.901125
0.901127
0.901128
0.90113
0.901132
0.901132
0.901134
0.901135
0.901137
0.901139
0.901139
0.901141
0.901143
0.901144
0.901146
0.901146
0.901148
0.90115
0.901151
0.901153
0.901153
0.901155
0.901157
0.901159
0.90116
0.90116
0.901162
0.901164
0.901166
0.901168
0.901168
0.90117
0.901171
0.901173
0.901175
0.901175
0.901177
0.901179
0.90118
0.901182
0.901182
0.901184
0.901186
0.901188
0.90119
0.90119
0.901191
0.901193
0.901195
0.901197
0.901197
0.901199
0.901201
0.901203
0.901204
0.901204
0.901206
0.901208
0.90121
0.901212
0.901212
0.901214
0.901216
0.901218
0.901219
0.901219
0.901221
0.901223
0.901225
0.901227
0.901227
0.901229
0.901231
0.901233
0.901235
0.901235
0.901237
0.901238
0.90124
0.901242
0.901242
0.901244
0.901246
0.901248
0.90125
0.90125
0.901252
0.901254
0.901256
0.901258
0.901258
0.90126
0.901261
0.901263
0.901265
0.901265
0.901267
0.901269
0.901271
0.901273
0.901273
0.901275
0.901277
0.901279
0.901281
0.901281
0.901283
0.901285
0.901287
0.901289
0.901289
0.901291
0.901293
0.901295
0.901297
0.901297
0.901299
0.901301
0.901303
0.901305
0.901305
0.901307
0.901309
0.901311
0.901313
0.901313
0.901315
0.901317
0.901319
0.901321
0.901321
0.901323
0.901325
0.901327
0.901329
0.901329
0.901331
0.901333
0.901335
0.901337
0.901337
0.901339
0.901341
0.901343
0.901345
0.901345
0.901347
0.901349
0.901351
0.901353
0.901353
0.901355
0.901357
0.901359
0.901361
0.901361
0.901363
0.901365
0.901368
0.90137
0.90137
0.901372
0.901374
0.901376
0.901378
0.901378
0.90138
0.901382
0.901384
0.901386
0.901386
0.901388
0.90139
0.901393
0.901395
0.901395
0.901397
0.901399
0.901401
0.901403
0.901403
0.901405
0.901407
0.901409
0.901412
0.901412
0.901414
0.901416
0.901418
0.90142
0.90142
0.901422
0.901424
0.901426
0.901429
0.901429
0.901431
0.901433
0.901435
0.901437
0.901437
0.901439
0.901441
0.901444
0.901446
0.901446
0.901448
0.90145
0.901452
0.901454
0.901454
0.901457
0.901459
0.901461
0.901463
0.901463
0.901465
0.901467
0.90147
0.901472
0.901472
0.901474
0.901476
0.901478
0.901481
0.901481
0.901483
0.901485
0.901487
0.901489
0.901489
0.901492
0.901494
0.901496
0.901498
0.901498
0.901501
0.901503
0.901505
0.901507
0.901507
0.901509
0.901512
0.901514
0.901516
0.901516
0.901518
0.901521
0.901523
0.901525
0.901525
0.901527
0.90153
0.901532
0.901534
0.901534
0.901536
0.901539
0.901541
0.901543
0.901543
0.901545
0.901548
0.90155
0.901552
0.901552
0.901554
0.901557
0.901559
0.901561
0.901561
0.901564
0.901566
0.901568
0.901571
0.901571
0.901573
0.901575
0.901577
0.90158
0.90158
0.901582
0.901584
0.901587
0.901589
0.901589
0.901591
0.901594
0.901596
0.901598
0.901598
0.901601
0.901603
0.901605
0.901608
0.901608
0.90161
0.901612
0.901615
0.901617
0.901617
0.901619
0.901622
0.901624
0.901626
0.901626
0.901629
0.901631
0.901633
0.901636
0.901636
0.901638
0.901641
0.901643
0.901645
0.901645
0.901648
0.90165
0.901652
0.901655
0.901655
0.901657
0.90166
0.901662
0.901664
0.901664
0.901667
0.901669
0.901672
0.901674
0.901674
0.901676
0.901679
0.901681
0.901684
0.901684
0.901686
0.901688
0.901691
0.901693
0.901693
0.901696
0.901698
0.901701
0.901703
0.901703
0.901705
0.901708
0.90171
0.901713
0.901713
0.901715
0.901718
0.90172
0.901723
0.901723
0.901725
0.901727
0.90173
0.901732
0.901732
0.901735
0.901737
0.90174
0.901742
0.901742
0.901745
0.901747
0.90175
0.901752
0.901752
0.901755
0.901757
0.90176
0.901762
0.901762
0.901765
0.901767
0.90177
0.901772
0.901772
0.901775
0.901777
0.90178
0.901782
0.901782
0.901785
0.901787
0.90179
0.901792
0.901792
0.901795
0.901797
0.9018
0.901802
0.901802
0.901805
0.901807
0.90181
0.901812
0.901812
0.901815
0.901818
0.90182
0.901823
0.901823
0.901825
0.901828
0.90183
0.901833
0.901833
0.901835
0.901838
0.901841
0.901843
0.901843
0.901846
0.901848
0.901851
0.901854
0.901854
0.901856
0.901859
0.901861
0.901864
0.901864
0.901866
0.901869
0.901872
0.901874
0.901874
0.901877
0.901879
0.901882
0.901885
0.901885
0.901887
0.90189
0.901893
0.901895
0.901895
0.901898
0.9019
0.901903
0.901906
0.901906
0.901908
0.901911
0.901914
0.901916
0.901916
0.901919
0.901921
0.901924
0.901927
0.901927
0.901929
0.901932
0.901935
0.901937
0.901937
0.90194
0.901943
0.901945
0.901948
0.901948
0.901951
0.901953
0.901956
0.901959
0.901959
0.901961
0.901964
0.901967
0.90197
0.90197
0.901972
0.901975
0.901978
0.90198
0.90198
0.901983
0.901986
0.901988
0.901991
0.901991
0.901994
0.901997
0.901999
0.902002
0.902002
0.902005
0.902007
0.90201
0.902013
0.902013
0.902016
0.902018
0.902021
0.902024
0.902024
0.902027
0.902029
0.902032
0.902035
0.902035
0.902038
0.90204
0.902043
0.902046
0.902046
0.902049
0.902051
0.902054
0.902057
0.902057
0.90206
0.902062
0.902065
0.902068
0.902068
0.902071
0.902074
0.902076
0.902079
0.902079
0.902082
0.902085
0.902088
0.90209
0.90209
0.902093
0.902096
0.902099
0.902102
0.902102
0.902104
0.902107
0.90211
0.902113
0.902113
0.902116
0.902118
0.902121
0.902124
0.902124
0.902127
0.90213
0.902133
0.902135
0.902135
0.902138
0.902141
0.902144
0.902147
0.902147
0.90215
0.902153
0.902155
0.902158
0.902158
0.902161
0.902164
0.902167
0.90217
0.90217
0.902173
0.902175
0.902178
0.902181
0.902181
0.902184
0.902187
0.90219
0.902193
0.902193
0.902196
0.902199
0.902201
0.902204
0.902204
0.902207
0.90221
0.902213
0.902216
0.902216
0.902219
0.902222
0.902225
0.902228
0.902228
0.90223
0.902233
0.902236
0.902239
0.902239
0.902242
0.902245
0.902248
0.902251
0.902251
0.902254
0.902257
0.90226
0.902263
0.902263
0.902266
0.902269
0.902272
0.902275
0.902275
0.902278
0.90228
0.902283
0.902286
0.902286
0.902289
0.902292
0.902295
0.902298
0.902298
0.902301
0.902304
0.902307
0.90231
0.90231
0.902313
0.902316
0.902319
0.902322
0.902322
0.902325
0.902328
0.902331
0.902334
0.902334
0.902337
0.90234
0.902343
0.902346
0.902346
0.902349
0.902352
0.902355
0.902358
0.902358
0.902361
0.902364
0.902367
0.90237
0.90237
0.902373
0.902377
0.90238
0.902383
0.902383
0.902386
0.902389
0.902392
0.902395
0.902395
0.902398
0.902401
0.902404
0.902407
0.902407
0.90241
0.902413
0.902416
0.902419
0.902419
0.902422
0.902426
0.902429
0.902432
0.902432
0.902435
0.902438
0.902441
0.902444
0.902444
0.902447
0.90245
0.902453
0.902456
0.902456
0.90246
0.902463
0.902466
0.902469
0.902469
0.902472
0.902475
0.902478
0.902481
0.902481
0.902485
0.902488
0.902491
0.902494
0.902494
0.902497
0.9025
0.902503
0.902506
0.902506
0.90251
0.902513
0.902516
0.902519
0.902519
0.902522
0.902525
0.902529
0.902532
0.902532
0.902535
0.902538
0.902541
0.902544
0.902544
0.902548
0.902551
0.902554
0.902557
0.902557
0.90256
0.902563
0.902567
0.90257
0.90257
0.902573
0.902576
0.902579
0.902583
0.902583
0.902586
0.902589
0.902592
0.902595
0.902595
0.902599
0.902602
0.902605
0.902608
0.902608
0.902612
0.902615
0.902618
0.902621
0.902621
0.902624
0.902628
0.902631
0.902634
0.902634
0.902637
0.902641
0.902644
0.902647
0.902647
0.90265
0.902654
0.902657
0.90266
0.90266
0.902664
0.902667
0.90267
0.902673
0.902673
0.902677
0.90268
0.902683
0.902686
0.902686
0.90269
0.902693
0.902696
0.9027
0.9027
0.902703
0.902706
0.902709
0.902713
0.902713
0.902716
0.902719
0.902723
0.902726
0.902726
0.902729
0.902733
0.902736
0.902739
0.902739
0.902743
0.902746
0.902749
0.902753
0.902753
0.902756
0.902759
0.902763
0.902766
0.902766
0.902769
0.902773
0.902776
0.902779
0.902779
0.902783
0.902786
0.902789
0.902793
0.902793
0.902796
0.902799
0.902803
0.902806
0.902806
0.90281
0.902813
0.902816
0.90282
0.90282
0.902823
0.902827
0.90283
0.902833
0.902833
0.902837
0.90284
0.902843
0.902847
0.902847
0.90285
0.902854
0.902857
0.902861
0.902861
0.902864
0.902867
0.902871
0.902874
0.902874
0.902878
0.902881
0.902884
0.902888
0.902888
0.902891
0.902895
0.902898
0.902902
0.902902
0.902905
0.902908
0.902912
0.902915
0.902915
0.902919
0.902922
0.902926
0.902929
0.902929
0.902933
0.902936
0.90294
0.902943
0.902943
0.902947
0.90295
0.902954
0.902957
0.902957
0.90296
0.902964
0.902967
0.902971
0.902971
0.902974
0.902978
0.902981
0.902985
0.902985
0.902988
0.902992
0.902995
0.902999
0.902999
0.903002
0.903006
0.903009
0.903013
0.903013
0.903017
0.90302
0.903024
0.903027
0.903027
0.903031
0.903034
0.903038
0.903041
0.903041
0.903045
0.903048
0.903052
0.903055
0.903055
0.903059
0.903063
0.903066
0.90307
0.90307
0.903073
0.903077
0.90308
0.903084
0.903084
0.903087
0.903091
0.903095
0.903098
0.903098
0.903102
0.903105
0.903109
0.903113
0.903113
0.903116
0.90312
0.903123
0.903127
0.903127
0.903131
0.903134
0.903138
0.903141
0.903141
0.903145
0.903149
0.903152
0.903156
0.903156
0.903159
0.903163
0.903167
0.90317
0.90317
0.903174
0.903178
0.903181
0.903185
0.903185
0.903188
0.903192
0.903196
0.903199
0.903199
0.903203
0.903207
0.90321
0.903214
0.903214
0.903218
0.903221
0.903225
0.903229
0.903229
0.903232
0.903236
0.90324
0.903243
0.903243
0.903247
0.903251
0.903254
0.903258
0.903258
0.903262
0.903265
0.903269
0.903273
0.903273
0.903277
0.90328
0.903284
0.903288
0.903288
0.903291
0.903295
0.903299
0.903303
0.903303
0.903306
0.90331
0.903314
0.903317
0.903317
0.903321
0.903325
0.903329
0.903332
0.903332
0.903336
0.90334
0.903344
0.903347
0.903347
0.903351
0.903355
0.903359
0.903362
0.903362
0.903366
0.90337
0.903374
0.903377
0.903377
0.903381
0.903385
0.903389
0.903392
0.903392
0.903396
0.9034
0.903404
0.903408
0.903408
0.903411
0.903415
0.903419
0.903423
0.903423
0.903427
0.90343
0.903434
0.903438
0.903438
0.903442
0.903446
0.903449
0.903453
0.903453
0.903457
0.903461
0.903465
0.903468
0.903468
0.903472
0.903476
0.90348
0.903484
0.903484
0.903488
0.903492
0.903495
0.903499
0.903499
0.903503
0.903507
0.903511
0.903515
0.903515
0.903518
0.903522
0.903526
0.90353
0.90353
0.903534
0.903538
0.903542
0.903546
0.903546
0.903549
0.903553
0.903557
0.903561
0.903561
0.903565
0.903569
0.903573
0.903577
0.903577
0.903581
0.903584
0.903588
0.903592
0.903592
0.903596
0.9036
0.903604
0.903608
0.903608
0.903612
0.903616
0.90362
0.903624
0.903624
0.903627
0.903631
0.903635
0.903639
0.903639
0.903643
0.903647
0.903651
0.903655
0.903655
0.903659
0.903663
0.903667
0.903671
0.903671
0.903675
0.903679
0.903683
0.903687
0.903687
0.903691
0.903695
0.903699
0.903703
0.903703
0.903707
0.903711
0.903714
0.903718
0.903718
0.903722
0.903726
0.90373
0.903734
0.903734
0.903738
0.903742
0.903746
0.90375
0.90375
0.903754
0.903758
0.903762
0.903766
0.903766
0.90377
0.903775
0.903779
0.903783
0.903783
0.903787
0.903791
0.903795
0.903799
0.903799
0.903803
0.903807
0.903811
0.903815
0.903815
0.903819
0.903823
0.903827
0.903831
0.903831
0.903835
0.903839
0.903843
0.903847
0.903847
0.903851
0.903855
0.903859
0.903864
0.903864
0.903868
0.903872
0.903876
0.90388
0.90388
0.903884
0.903888
0.903892
0.903896
0.903896
0.9039
0.903904
0.903908
0.903913
0.903913
0.903917
0.903921
0.903925
0.903929
0.903929
0.903933
0.903937
0.903941
0.903946
0.903946
0.90395
0.903954
0.903958
0.903962
0.903962
0.903966
0.90397
0.903974
0.903979
0.903979
0.903983
0.903987
0.903991
0.903995
0.903995
0.903999
0.904003
0.904008
0.904012
0.904012
0.904016
0.90402
0.904024
0.904028
0.904028
0.904033
0.904037
0.904041
0.904045
0.904045
0.904049
0.904054
0.904058
0.904062
0.904062
0.904066
0.90407
0.904075
0.904079
0.904079
0.904083
0.904087
0.904091
0.904096
0.904096
0.9041
0.904104
0.904108
0.904112
0.904112
0.904117
0.904121
0.904125
0.904129
0.904129
0.904134
0.904138
0.904142
0.904146
0.904146
0.904151
0.904155
0.904159
0.904163
0.904163
0.904168
0.904172
0.904176
0.90418
0.90418
0.904185
0.904189
0.904193
0.904197
0.904197
0.904202
0.904206
0.90421
0.904215
0.904215
0.904219
0.904223
0.904227
0.904232
0.904232
0.904236
0.90424
0.904245
0.904249
0.904249
0.904253
0.904257
0.904262
0.904266
0.904266
0.90427
0.904275
0.904279
0.904283
0.904283
0.904288
0.904292
0.904296
0.904301
0.904301
0.904305
0.904309
0.904314
0.904318
0.904318
0.904322
0.904327
0.904331
0.904335
0.904335
0.90434
0.904344
0.904348
0.904353
0.904353
0.904357
0.904362
0.904366
0.90437
0.90437
0.904375
0.904379
0.904383
0.904388
0.904388
0.904392
0.904397
0.904401
0.904405
0.904405
0.90441
0.904414
0.904419
0.904423
0.904423
0.904427
0.904432
0.904436
0.904441
0.904441
0.904445
0.904449
0.904454
0.904458
0.904458
0.904463
0.904467
0.904471
0.904476
0.904476
0.90448
0.904485
0.904489
0.904494
0.904494
0.904498
0.904503
0.904507
0.904511
0.904511
0.904516
0.90452
0.904525
0.904529
0.904529
0.904534
0.904538
0.904543
0.904547
0.904547
0.904552
0.904556
0.904561
0.904565
0.904565
0.904569
0.904574
0.904578
0.904583
0.904583
0.904587
0.904592
0.904596
0.904601
0.904601
0.904605
0.90461
0.904614
0.904619
0.904619
0.904623
0.904628
0.904633
0.904637
0.904637
0.904642
0.904646
0.904651
0.904655
0.904655
0.90466
0.904664
0.904669
0.904673
0.904673
0.904678
0.904682
0.904687
0.904691
0.904691
0.904696
0.904701
0.904705
0.90471
0.90471
0.904714
0.904719
0.904723
0.904728
0.904728
0.904733
0.904737
0.904742
0.904746
0.904746
0.904751
0.904755
0.90476
0.904765
0.904765
0.904769
0.904774
0.904778
0.904783
0.904783
0.904788
0.904792
0.904797
0.904801
0.904801
0.904806
0.904811
0.904815
0.90482
0.90482
0.904824
0.904829
0.904834
0.904838
0.904838
0.904843
0.904848
0.904852
0.904857
0.904857
0.904862
0.904866
0.904871
0.904875
0.904875
0.90488
0.904885
0.904889
0.904894
0.904894
0.904899
0.904903
0.904908
0.904913
0.904913
0.904917
0.904922
0.904927
0.904931
0.904931
0.904936
0.904941
0.904945
0.90495
0.90495
0.904955
0.90496
0.904964
0.904969
0.904969
0.904974
0.904978
0.904983
0.904988
0.904988
0.904992
0.904997
0.905002
0.905007
0.905007
0.905011
0.905016
0.905021
0.905026
0.905026
0.90503
0.905035
0.90504
0.905044
0.905044
0.905049
0.905054
0.905059
0.905063
0.905063
0.905068
0.905073
0.905078
0.905082
0.905082
0.905087
0.905092
0.905097
0.905101
0.905101
0.905106
0.905111
0.905116
0.905121
0.905121
0.905125
0.90513
0.905135
0.90514
0.90514
0.905145
0.905149
0.905154
0.905159
0.905159
0.905164
0.905169
0.905173
0.905178
0.905178
0.905183
0.905188
0.905193
0.905197
0.905197
0.905202
0.905207
0.905212
0.905217
0.905217
0.905221
0.905226
0.905231
0.905236
0.905236
0.905241
0.905246
0.905251
0.905255
0.905255
0.90526
0.905265
0.90527
0.905275
0.905275
0.90528
0.905285
0.905289
0.905294
0.905294
0.905299
0.905304
0.905309
0.905314
0.905314
0.905319
0.905323
0.905328
0.905333
0.905333
0.905338
0.905343
0.905348
0.905353
0.905353
0.905358
0.905363
0.905368
0.905372
0.905372
0.905377
0.905382
0.905387
0.905392
0.905392
0.905397
0.905402
0.905407
0.905412
0.905412
0.905417
0.905422
0.905427
0.905432
0.905432
0.905436
0.905441
0.905446
0.905451
0.905451
0.905456
0.905461
0.905466
0.905471
0.905471
0.905476
0.905481
0.905486
0.905491
0.905491
0.905496
0.905501
0.905506
0.905511
0.905511
0.905516
0.905521
0.905526
0.905531
0.905531
0.905536
0.905541
0.905546
0.905551
0.905551
0.905556
0.905561
0.905566
0.905571
0.905571
0.905576
0.905581
0.905586
0.905591
0.905591
0.905596
0.905601
0.905606
0.905611
0.905611
0.905616
0.905621
0.905626
0.905631
0.905631
0.905636
0.905641
0.905646
0.905651
0.905651
0.905656
0.905661
0.905666
0.905671
0.905671
0.905677
0.905682
0.905687
0.905692
0.905692
0.905697
0.905702
0.905707
0.905712
0.905712
0.905717
0.905722
0.905727
0.905732
0.905732
0.905737
0.905743
0.905748
0.905753
0.905753
0.905758
0.905763
0.905768
0.905773
0.905773
0.905778
0.905783
0.905788
0.905794
0.905794
0.905799
0.905804
0.905809
0.905814
0.905814
0.905819
0.905824
0.905829
0.905835
0.905835
0.90584
0.905845
0.90585
0.905855
0.905855
0.90586
0.905865
0.905871
0.905876
0.905876
0.905881
0.905886
0.905891
0.905896
0.905896
0.905902
0.905907
0.905912
0.905917
0.905917
0.905922
0.905927
0.905933
0.905938
0.905938
0.905943
0.905948
0.905953
0.905959
0.905959
0.905964
0.905969
0.905974
0.905979
0.905979
0.905985
0.90599
0.905995
0.906
0.906
0.906005
0.906011
0.906016
0.906021
0.906021
0.906026
0.906032
0.906037
0.906042
0.906042
0.906047
0.906053
0.906058
0.906063
0.906063
0.906068
0.906074
0.906079
0.906084
0.906084
0.906089
0.906095
0.9061
0.906105
0.906105
0.90611
0.906116
0.906121
0.906126
0.906126
0.906131
0.906137
0.906142
0.906147
0.906147
0.906153
0.906158
0.906163
0.906169
0.906169
0.906174
0.906179
0.906184
0.90619
0.90619
0.906195
0.9062
0.906206
0.906211
0.906211
0.906216
0.906222
0.906227
0.906232
0.906232
0.906238
0.906243
0.906248
0.906254
0.906254
0.906259
0.906264
0.90627
0.906275
0.906275
0.90628
0.906286
0.906291
0.906296
0.906296
0.906302
0.906307
0.906312
0.906318
0.906318
0.906323
0.906329
0.906334
0.906339
0.906339
0.906345
0.90635
0.906355
0.906361
0.906361
0.906366
0.906372
0.906377
0.906382
0.906382
0.906388
0.906393
0.906399
0.906404
0.906404
0.906409
0.906415
0.90642
0.906426
0.906426
0.906431
0.906437
0.906442
0.906447
0.906447
0.906453
0.906458
0.906464
0.906469
0.906469
0.906475
0.90648
0.906485
0.906491
0.906491
0.906496
0.906502
0.906507
0.906513
0.906513
0.906518
0.906524
0.906529
0.906535
0.906535
0.90654
0.906545
0.906551
0.906556
0.906556
0.906562
0.906567
0.906573
0.906578
0.906578
0.906584
0.906589
0.906595
0.9066
0.9066
0.906606
0.906611
0.906617
0.906622
0.906622
0.906628
0.906633
0.906639
0.906644
0.906644
0.90665
0.906655
0.906661
0.906666
0.906666
0.906672
0.906678
0.906683
0.906689
0.906689
0.906694
0.9067
0.906705
0.906711
0.906711
0.906716
0.906722
0.906727
0.906733
0.906733
0.906739
0.906744
0.90675
0.906755
0.906755
0.906761
0.906766
0.906772
0.906778
0.906778
0.906783
0.906789
0.906794
0.9068
0.9068
0.906805
0.906811
0.906817
0.906822
0.906822
0.906828
0.906833
0.906839
0.906845
0.906845
0.90685
0.906856
0.906862
0.906867
0.906867
0.906873
0.906878
0.906884
0.90689
0.90689
0.906895
0.906901
0.906907
0.906912
0.906912
0.906918
0.906923
0.906929
0.906935
0.906935
0.90694
0.906946
0.906952
0.906957
0.906957
0.906963
0.906969
0.906974
0.90698
0.90698
0.906986
0.906991
0.906997
0.907003
0.907003
0.907008
0.907014
0.90702
0.907025
0.907025
0.907031
0.907037
0.907042
0.907048
0.907048
0.907054
0.90706
0.907065
0.907071
0.907071
0.907077
0.907082
0.907088
0.907094
0.907094
0.9071
0.907105
0.907111
0.907117
0.907117
0.907122
0.907128
0.907134
0.90714
0.90714
0.907145
0.907151
0.907157
0.907163
0.907163
0.907168
0.907174
0.90718
0.907186
0.907186
0.907191
0.907197
0.907203
0.907209
0.907209
0.907215
0.90722
0.907226
0.907232
0.907232
0.907238
0.907243
0.907249
0.907255
0.907255
0.907261
0.907267
0.907272
0.907278
0.907278
0.907284
0.90729
0.907296
0.907301
0.907301
0.907307
0.907313
0.907319
0.907325
0.907325
0.90733
0.907336
0.907342
0.907348
0.907348
0.907354
0.90736
0.907365
0.907371
0.907371
0.907377
0.907383
0.907389
0.907395
0.907395
0.907401
0.907406
0.907412
0.907418
0.907418
0.907424
0.90743
0.907436
0.907442
0.907442
0.907447
0.907453
0.907459
0.907465
0.907465
0.907471
0.907477
0.907483
0.907489
0.907489
0.907494
0.9075
0.907506
0.907512
0.907512
0.907518
0.907524
0.90753
0.907536
0.907536
0.907542
0.907548
0.907554
0.907559
0.907559
0.907565
0.907571
0.907577
0.907583
0.907583
0.907589
0.907595
0.907601
0.907607
0.907607
0.907613
0.907619
0.907625
0.907631
0.907631
0.907637
0.907643
0.907649
0.907654
0.907654
0.90766
0.907666
0.907672
0.907678
0.907678
0.907684
0.90769
0.907696
0.907702
0.907702
0.907708
0.907714
0.90772
0.907726
0.907726
0.907732
0.907738
0.907744
0.90775
0.90775
0.907756
0.907762
0.907768
0.907774
0.907774
0.90778
0.907786
0.907792
0.907798
0.907798
0.907804
0.90781
0.907816
0.907822
0.907822
0.907828
0.907834
0.90784
0.907847
0.907847
0.907853
0.907859
0.907865
0.907871
0.907871
0.907877
0.907883
0.907889
0.907895
0.907895
0.907901
0.907907
0.907913
0.907919
0.907919
0.907925
0.907931
0.907937
0.907944
0.907944
0.90795
0.907956
0.907962
0.907968
0.907968
0.907974
0.90798
0.907986
0.907992
0.907992
0.907998
0.908004
0.908011
0.908017
0.908017
0.908023
0.908029
0.908035
0.908041
0.908041
0.908047
0.908053
0.90806
0.908066
0.908066
0.908072
0.908078
0.908084
0.90809
0.90809
0.908096
0.908102
0.908109
0.908115
0.908115
0.908121
0.908127
0.908133
0.908139
0.908139
0.908146
0.908152
0.908158
0.908164
0.908164
0.90817
0.908176
0.908183
0.908189
0.908189
0.908195
0.908201
0.908207
0.908214
0.908214
0.90822
0.908226
0.908232
0.908238
0.908238
0.908245
0.908251
0.908257
0.908263
0.908263
0.908269
0.908276
0.908282
0.908288
0.908288
0.908294
0.908301
0.908307
0.908313
0.908313
0.908319
0.908325
0.908332
0.908338
0.908338
0.908344
0.90835
0.908357
0.908363
0.908363
0.908369
0.908375
0.908382
0.908388
0.908388
0.908394
0.9084
0.908407
0.908413
0.908413
0.908419
0.908426
0.908432
0.908438
0.908438
0.908444
0.908451
0.908457
0.908463
0.908463
0.90847
0.908476
0.908482
0.908489
0.908489
0.908495
0.908501
0.908507
0.908514
0.908514
0.90852
0.908526
0.908533
0.908539
0.908539
0.908545
0.908552
0.908558
0.908564
0.908564
0.908571
0.908577
0.908583
0.90859
0.90859
0.908596
0.908602
0.908609
0.908615
0.908615
0.908621
0.908628
0.908634
0.908641
0.908641
0.908647
0.908653
0.90866
0.908666
0.908666
0.908672
0.908679
0.908685
0.908692
0.908692
0.908698
0.908704
0.908711
0.908717
0.908717
0.908724
0.90873
0.908736
0.908743
0.908743
0.908749
0.908756
0.908762
0.908768
0.908768
0.908775
0.908781
0.908788
0.908794
0.908794
0.9088
0.908807
0.908813
0.90882
0.90882
0.908826
0.908833
0.908839
0.908846
0.908846
0.908852
0.908858
0.908865
0.908871
0.908871
0.908878
0.908884
0.908891
0.908897
0.908897
0.908904
0.90891
0.908917
0.908923
0.908923
0.90893
0.908936
0.908943
0.908949
0.908949
0.908956
0.908962
0.908969
0.908975
0.908975
0.908982
0.908988
0.908995
0.909001
0.909001
0.909008
0.909014
0.909021
0.909027
0.909027
0.909034
0.90904
0.909047
0.909053
0.909053
0.90906
0.909066
0.909073
0.909079
0.909079
0.909086
0.909092
0.909099
0.909105
0.909105
0.909112
0.909119
0.909125
0.909132
0.909132
0.909138
0.909145
0.909151
0.909158
0.909158
0.909165
0.909171
0.909178
0.909184
0.909184
0.909191
0.909197
0.909204
0.909211
0.909211
0.909217
0.909224
0.90923
0.909237
0.909237
0.909244
0.90925
0.909257
0.909263
0.909263
0.90927
0.909277
0.909283
0.90929
0.90929
0.909296
0.909303
0.90931
0.909316
0.909316
0.909323
0.90933
0.909336
0.909343
0.909343
0.90935
0.909356