<?xml version="1.0"?>
<VTKFile type="UnstructuredGrid" version="0.1" byte_order="LittleEndian">
<UnstructuredGrid>
<Piece NumberOfPoints="5000" NumberOfCells="4000">
<PointData Scalars="Reaction 0">
<DataArray type="Float32" Name="Reaction 0" format="ascii">
0.33427
0.33427
0.33427
0.334271
0.334271
0.334271
0.334271
0.334271
0.334271
0.334271
0.334271
0.334272
0.334272
0.334272
0.334273
0.334273
0.334273
0.334273
0.334274
0.334274
0.334274
0.334275
0.334275
0.334276
0.334277
0.334277
0.334277
0.334278
0.334279
0.334279
0.334279
0.33428
0.334281
0.334282
0.334282
0.334282
0.334283
0.334284
0.334285
0.334286
0.334286
0.334287
0.334288
0.334289
0.33429
0.33429
0.334291
0.334293
0.334294
0.334295
0.334295
0.334296
0.334297
0.334299
0.3343
0.3343
0.334301
0.334303
0.334304
0.334306
0.334306
0.334307
0.334309
0.33431
0.334312
0.334312
0.334313
0.334315
0.334317
0.334318
0.334318
0.33432
0.334322
0.334324
0.334326
0.334326
0.334327
0.334329
0.334331
0.334333
0.334333
0.334335
0.334337
0.334339
0.334341
0.334341
0.334343
0.334346
0.334348
0.33435
0.33435
0.334352
0.334354
0.334357
0.334359
0.334359
0.334361
0.334364
0.334366
0.334369
0.334369
0.334371
0.334373
0.334376
0.334379
0.334379
0.334381
0.334384
0.334386
0.334389
0.334389
0.334392
0.334395
0.334397
0.3344
0.3344
0.334403
0.334406
0.334409
0.334412
0.334412
0.334415
0.334418
0.334421
0.334424
0.334424
0.334427
0.33443
0.334433
0.334436
0.334436
0.334439
0.334443
0.334446
0.334449
0.334449
0.334453
0.334456
0.334459
0.334463
0.334463
0.334466
0.33447
0.334473
0.334477
0.334477
0.33448
0.334484
0.334487
0.334491
0.334491
0.334495
0.334499
0.334502
0.334506
0.334506
0.33451
0.334514
0.334518
0.334522
0.334522
0.334526
0.334529
0.334533
0.334538
0.334538
0.334542
0.334546
0.33455
0.334554
0.334554
0.334558
0.334562
0.334567
0.334571
0.334571
0.334575
0.33458
0.334584
0.334588
0.334588
0.334593
0.334597
0.334602
0.334606
0.334606
0.334611
0.334615
0.33462
0.334625
0.334625
0.334629
0.334634
0.334639
0.334643
0.334643
0.334648
0.334653
0.334658
0.334663
0.334663
0.334668
0.334673
0.334678
0.334683
0.334683
0.334688
0.334693
0.334698
0.334703
0.334703
0.334708
0.334713
0.334719
0.334724
0.334724
0.334729
0.334735
0.33474
0.334745
0.334745
0.334751
0.334756
0.334762
0.334767
0.334767
0.334773
0.334778
0.334784
0.334789
0.334789
0.334795
0.334801
0.334806
0.334812
0.334812
0.334818
0.334824
0.33483
0.334836
0.334836
0.334841
0.334847
0.334853
0.334859
0.334859
0.334865
0.334871
0.334877
0.334884
0.334884
0.33489
0.334896
0.334902
0.334908
0.334908
0.334915
0.334921
0.334927
0.334934
0.334934
0.33494
0.334946
0.334953
0.334959
0.334959
0.334966
0.334972
0.334979
0.334986
0.334986
0.334992
0.334999
0.335006
0.335012
0.335012
0.335019
0.335026
0.335033
0.33504
0.33504
0.335046
0.335053
0.33506
0.335067
0.335067
0.335074
0.335081
0.335088
0.335095
0.335095
0.335103
0.33511
0.335117
0.335124
0.335124
0.335131
0.335139
0.335146
0.335153
0.335153
0.335161
0.335168
0.335176
0.335183
0.335183
0.335191
0.335198
0.335206
0.335213
0.335213
0.335221
0.335228
0.335236
0.335244
0.335244
0.335252
0.335259
0.335267
0.335275
0.335275
0.335283
0.335291
0.335299
0.335307
0.335307
0.335315
0.335323
0.335331
0.335339
0.335339
0.335347
0.335355
0.335363
0.335371
0.335371
0.33538
0.335388
0.335396
0.335404
0.335404
0.335413
0.335421
0.33543
0.335438
0.335438
0.335446
0.335455
0.335464
0.335472
0.335472
0.335481
0.335489
0.335498
0.335507
0.335507
0.335515
0.335524
0.335533
0.335542
0.335542
0.335551
0.335559
0.335568
0.335577
0.335577
0.335586
0.335595
0.335604
0.335613
0.335613
0.335622
0.335632
0.335641
0.33565
0.33565
0.335659
0.335668
0.335678
0.335687
0.335687
0.335696
0.335706
0.335715
0.335724
0.335724
0.335734
0.335743
0.335753
0.335762
0.335762
0.335772
0.335782
0.335791
0.335801
0.335801
0.335811
0.33582
0.33583
0.33584
0.33584
0.33585
0.33586
0.335869
0.335879
0.335879
0.335889
0.335899
0.335909
0.335919
0.335919
0.335929
0.335939
0.33595
0.33596
0.33596
0.33597
0.33598
0.33599
0.336001
0.336001
0.336011
0.336021
0.336032
0.336042
0.336042
0.336052
0.336063
0.336073
0.336084
0.336084
0.336095
0.336105
0.336116
0.336126
0.336126
0.336137
0.336148
0.336158
0.336169
0.336169
0.33618
0.336191
0.336202
0.336213
0.336213
0.336224
0.336235
0.336246
0.336257
0.336257
0.336268
0.336279
0.33629
0.336301
0.336301
0.336312
0.336323
0.336334
0.336346
0.336346
0.336357
0.336368
0.33638
0.336391
0.336391
0.336402
0.336414
0.336425
0.336437
0.336437
0.336448
0.33646
0.336472
0.336483
0.336483
0.336495
0.336507
0.336518
0.33653
0.33653
0.336542
0.336554
0.336565
0.336577
0.336577
0.336589
0.336601
0.336613
0.336625
0.336625
0.336637
0.336649
0.336661
0.336673
0.336673
0.336686
0.336698
0.33671
0.336722
0.336722
0.336734
0.336747
0.336759
0.336771
0.336771
0.336784
0.336796
0.336809
0.336821
0.336821
0.336834
0.336846
0.336859
0.336871
0.336871
0.336884
0.336897
0.336909
0.336922
0.336922
0.336935
0.336948
0.33696
0.336973
0.336973
0.336986
0.336999
0.337012
0.337025
0.337025
0.337038
0.337051
0.337064
0.337077
0.337077
0.33709
0.337103
0.337117
0.33713
0.33713
0.337143
0.337156
0.33717
0.337183
0.337183
0.337196
0.33721
0.337223
0.337237
0.337237
0.33725
0.337264
0.337277
0.337291
0.337291
0.337304
0.337318
0.337332
0.337345
0.337345
0.337359
0.337373
0.337387
0.337401
0.337401
0.337414
0.337428
0.337442
0.337456
0.337456
0.33747
0.337484
0.337498
0.337512
0.337512
0.337526
0.33754
0.337555
0.337569
0.337569
0.337583
0.337597
0.337612
0.337626
0.337626
0.33764
0.337655
0.337669
0.337683
0.337683
0.337698
0.337712
0.337727
0.337741
0.337741
0.337756
0.337771
0.337785
0.3378
0.3378
0.337815
0.337829
0.337844
0.337859
0.337859
0.337874
0.337889
0.337904
0.337919
0.337919
0.337933
0.337948
0.337963
0.337979
0.337979
0.337994
0.338009
0.338024
0.338039
0.338039
0.338054
0.338069
0.338085
0.3381
0.3381
0.338115
0.338131
0.338146
0.338161
0.338161
0.338177
0.338192
0.338208
0.338223
0.338223
0.338239
0.338255
0.33827
0.338286
0.338286
0.338302
0.338317
0.338333
0.338349
0.338349
0.338365
0.33838
0.338396
0.338412
0.338412
0.338428
0.338444
0.33846
0.338476
0.338476
0.338492
0.338508
0.338524
0.33854
0.33854
0.338557
0.338573
0.338589
0.338605
0.338605
0.338622
0.338638
0.338654
0.338671
0.338671
0.338687
0.338704
0.33872
0.338737
0.338737
0.338753
0.33877
0.338786
0.338803
0.338803
0.33882
0.338836
0.338853
0.33887
0.33887
0.338887
0.338903
0.33892
0.338937
0.338937
0.338954
0.338971
0.338988
0.339005
0.339005
0.339022
0.339039
0.339056
0.339073
0.339073
0.33909
0.339107
0.339125
0.339142
0.339142
0.339159
0.339177
0.339194
0.339211
0.339211
0.339229
0.339246
0.339263
0.339281
0.339281
0.339298
0.339316
0.339334
0.339351
0.339351
0.339369
0.339386
0.339404
0.339422
0.339422
0.33944
0.339457
0.339475
0.339493
0.339493
0.339511
0.339529
0.339547
0.339565
0.339565
0.339583
0.339601
0.339619
0.339637
0.339637
0.339655
0.339673
0.339691
0.33971
0.33971
0.339728
0.339746
0.339765
0.339783
0.339783
0.339801
0.33982
0.339838
0.339857
0.339857
0.339875
0.339894
0.339912
0.339931
0.339931
0.339949
0.339968
0.339987
0.340005
0.340005
0.340024
0.340043
0.340062
0.34008
0.34008
0.340099
0.340118
0.340137
0.340156
0.340156
0.340175
0.340194
0.340213
0.340232
0.340232
0.340251
0.34027
0.340289
0.340309
0.340309
0.340328
0.340347
0.340366
0.340386
0.340386
0.340405
0.340424
0.340444
0.340463
0.340463
0.340483
0.340502
0.340522
0.340541
0.340541
0.340561
0.34058
0.3406
0.34062
0.34062
0.340639
0.340659
0.340679
0.340699
0.340699
0.340719
0.340738
0.340758
0.340778
0.340778
0.340798
0.340818
0.340838
0.340858
0.340858
0.340878
0.340898
0.340919
0.340939
0.340939
0.340959
0.340979
0.340999
0.34102
0.34102
0.34104
0.34106
0.341081
0.341101
0.341101
0.341121
0.341142
0.341162
0.341183
0.341183
0.341204
0.341224
0.341245
0.341265
0.341265
0.341286
0.341307
0.341327
0.341348
0.341348
0.341369
0.34139
0.341411
0.341432
0.341432
0.341453
0.341473
0.341494
0.341515
0.341515
0.341537
0.341558
0.341579
0.3416
0.3416
0.341621
0.341642
0.341663
0.341685
0.341685
0.341706
0.341727
0.341749
0.34177
0.34177
0.341791
0.341813
0.341834
0.341856
0.341856
0.341877
0.341899
0.34192
0.341942
0.341942
0.341964
0.341985
0.342007
0.342029
0.342029
0.342051
0.342072
0.342094
0.342116
0.342116
0.342138
0.34216
0.342182
0.342204
0.342204
0.342226
0.342248
0.34227
0.342292
0.342292
0.342314
0.342336
0.342359
0.342381
0.342381
0.342403
0.342425
0.342448
0.34247
0.34247
0.342492
0.342515
0.342537
0.34256
0.34256
0.342582
0.342605
0.342627
0.34265
0.34265
0.342672
0.342695
0.342718
0.34274
0.34274
0.342763
0.342786
0.342809
0.342832
0.342832
0.342854
0.342877
0.3429
0.342923
0.342923
0.342946
0.342969
0.342992
0.343015
0.343015
0.343038
0.343062
0.343085
0.343108
0.343108
0.343131
0.343154
0.343178
0.343201
0.343201
0.343224
0.343248
0.343271
0.343295
0.343295
0.343318
0.343342
0.343365
0.343389
0.343389
0.343412
0.343436
0.343459
0.343483
0.343483
0.343507
0.343531
0.343554
0.343578
0.343578
0.343602
0.343626
0.34365
0.343674
0.343674
0.343698
0.343722
0.343746
0.34377
0.34377
0.343794
0.343818
0.343842
0.343866
0.343866
0.34389
0.343914
0.343939
0.343963
0.343963
0.343987
0.344012
0.344036
0.34406
0.34406
0.344085
0.344109
0.344134
0.344158
0.344158
0.344183
0.344208
0.344232
0.344257
0.344257
0.344281
0.344306
0.344331
0.344356
0.344356
0.34438
0.344405
0.34443
0.344455
0.344455
0.34448
0.344505
0.34453
0.344555
0.344555
0.34458
0.344605
0.34463
0.344655
0.344655
0.34468
0.344706
0.344731
0.344756
0.344756
0.344781
0.344807
0.344832
0.344857
0.344857
0.344883
0.344908
0.344934
0.344959
0.344959
0.344985
0.34501
0.345036
0.345061
0.345061
0.345087
0.345113
0.345138
0.345164
0.345164
0.34519
0.345216
0.345242
0.345267
0.345267
0.345293
0.345319
0.345345
0.345371
0.345371
0.345397
0.345423
0.345449
0.345475
0.345475
0.345501
0.345528
0.345554
0.34558
0.34558
0.345606
0.345633
0.345659
0.345685
0.345685
0.345712
0.345738
0.345764
0.345791
0.345791
0.345817
0.345844
0.34587
0.345897
0.345897
0.345924
0.34595
0.345977
0.346004
0.346004
0.34603
0.346057
0.346084
0.346111
0.346111
0.346137
0.346164
0.346191
0.346218
0.346218
0.346245
0.346272
0.346299
0.346326
0.346326
0.346353
0.346381
0.346408
0.346435
0.346435
0.346462
0.346489
0.346517
0.346544
0.346544
0.346571
0.346599
0.346626
0.346653
0.346653
0.346681
0.346708
0.346736
0.346763
0.346763
0.346791
0.346819
0.346846
0.346874
0.346874
0.346902
0.346929
0.346957
0.346985
0.346985
0.347013
0.34704
0.347068
0.347096
0.347096
0.347124
0.347152
0.34718
0.347208
0.347208
0.347236
0.347264
0.347292
0.347321
0.347321
0.347349
0.347377
0.347405
0.347433
0.347433
0.347462
0.34749
0.347518
0.347547
0.347547
0.347575
0.347604
0.347632
0.347661
0.347661
0.347689
0.347718
0.347746
0.347775
0.347775
0.347804
0.347832
0.347861
0.34789
0.34789
0.347919
0.347947
0.347976
0.348005
0.348005
0.348034
0.348063
0.348092
0.348121
0.348121
0.34815
0.348179
0.348208
0.348237
0.348237
0.348266
0.348295
0.348325
0.348354
0.348354
0.348383
0.348412
0.348442
0.348471
0.348471
0.3485
0.34853
0.348559
0.348589
0.348589
0.348618
0.348648
0.348677
0.348707
0.348707
0.348737
0.348766
0.348796
0.348826
0.348826
0.348855
0.348885
0.348915
0.348945
0.348945
0.348975
0.349004
0.349034
0.349064
0.349064
0.349094
0.349124
0.349154
0.349184
0.349184
0.349214
0.349245
0.349275
0.349305
0.349305
0.349335
0.349365
0.349396
0.349426
0.349426
0.349456
0.349487
0.349517
0.349548
0.349548
0.349578
0.349609
0.349639
0.34967
0.34967
0.3497
0.349731
0.349761
0.349792
0.349792
0.349823
0.349853
0.349884
0.349915
0.349915
0.349946
0.349977
0.350008
0.350039
0.350039
0.350069
0.3501
0.350131
0.350162
0.350162
0.350193
0.350225
0.350256
0.350287
0.350287
0.350318
0.350349
0.35038
0.350412
0.350412
0.350443
0.350474
0.350506
0.350537
0.350537
0.350569
0.3506
0.350631
0.350663
0.350663
0.350695
0.350726
0.350758
0.350789
0.350789
0.350821
0.350853
0.350884
0.350916
0.350916
0.350948
0.35098
0.351012
0.351043
0.351043
0.351075
0.351107
0.351139
0.351171
0.351171
0.351203
0.351235
0.351267
0.351299
0.351299
0.351332
0.351364
0.351396
0.351428
0.351428
0.35146
0.351493
0.351525
0.351557
0.351557
0.35159
0.351622
0.351655
0.351687
0.351687
0.35172
0.351752
0.351785
0.351817
0.351817
0.35185
0.351882
0.351915
0.351948
0.351948
0.351981
0.352013
0.352046
0.352079
0.352079
0.352112
0.352145
0.352178
0.352211
0.352211
0.352244
0.352277
0.35231
0.352343
0.352343
0.352376
0.352409
0.352442
0.352475
0.352475
0.352508
0.352542
0.352575
0.352608
0.352608
0.352642
0.352675
0.352708
0.352742
0.352742
0.352775
0.352809
0.352842
0.352876
0.352876
0.352909
0.352943
0.352977
0.35301
0.35301
0.353044
0.353078
0.353111
0.353145
0.353145
0.353179
0.353213
0.353247
0.353281
0.353281
0.353315
0.353348
0.353382
0.353416
0.353416
0.353451
0.353485
0.353519
0.353553
0.353553
0.353587
0.353621
0.353655
0.35369
0.35369
0.353724
0.353758
0.353793
0.353827
0.353827
0.353861
0.353896
0.35393
0.353965
0.353965
0.353999
0.354034
0.354069
0.354103
0.354103
0.354138
0.354172
0.354207
0.354242
0.354242
0.354277
0.354311
0.354346
0.354381
0.354381
0.354416
0.354451
0.354486
0.354521
0.354521
0.354556
0.354591
0.354626
0.354661
0.354661
0.354696
0.354731
0.354767
0.354802
0.354802
0.354837
0.354872
0.354908
0.354943
0.354943
0.354978
0.355014
0.355049
0.355084
0.355084
0.35512
0.355155
0.355191
0.355227
0.355227
0.355262
0.355298
0.355333
0.355369
0.355369
0.355405
0.355441
0.355476
0.355512
0.355512
0.355548
0.355584
0.35562
0.355656
0.355656
0.355692
0.355728
0.355764
0.3558
0.3558
0.355836
0.355872
0.355908
0.355944
0.355944
0.35598
0.356017
0.356053
0.356089
0.356089
0.356125
0.356162
0.356198
0.356235
0.356235
0.356271
0.356308
0.356344
0.356381
0.356381
0.356417
0.356454
0.35649
0.356527
0.356527
0.356564
0.3566
0.356637
0.356674
0.356674
0.356711
0.356747
0.356784
0.356821
0.356821
0.356858
0.356895
0.356932
0.356969
0.356969
0.357006
0.357043
0.35708
0.357117
0.357117
0.357154
0.357191
0.357229
0.357266
0.357266
0.357303
0.35734
0.357378
0.357415
0.357415
0.357453
0.35749
0.357527
0.357565
0.357565
0.357602
0.35764
0.357677
0.357715
0.357715
0.357753
0.35779
0.357828
0.357866
0.357866
0.357903
0.357941
0.357979
0.358017
0.358017
0.358055
0.358093
0.35813
0.358168
0.358168
0.358206
0.358244
0.358282
0.35832
0.35832
0.358359
0.358397
0.358435
0.358473
0.358473
0.358511
0.358549
0.358588
0.358626
0.358626
0.358664
0.358703
0.358741
0.35878
0.35878
0.358818
0.358856
0.358895
0.358934
0.358934
0.358972
0.359011
0.359049
0.359088
0.359088
0.359127
0.359165
0.359204
0.359243
0.359243
0.359282
0.359321
0.359359
0.359398
0.359398
0.359437
0.359476
0.359515
0.359554
0.359554
0.359593
0.359632
0.359671
0.35971
0.35971
0.35975
0.359789
0.359828
0.359867
0.359867
0.359907
0.359946
0.359985
0.360025
0.360025
0.360064
0.360103
0.360143
0.360182
0.360182
0.360222
0.360261
0.360301
0.360341
0.360341
0.36038
0.36042
0.36046
0.360499
0.360499
0.360539
0.360579
0.360619
0.360658
0.360658
0.360698
0.360738
0.360778
0.360818
0.360818
0.360858
0.360898
0.360938
0.360978
0.360978
0.361018
0.361058
0.361099
0.361139
0.361139
0.361179
0.361219
0.36126
0.3613
0.3613
0.36134
0.361381
0.361421
0.361461
0.361461
0.361502
0.361542
0.361583
0.361623
0.361623
0.361664
0.361705
0.361745
0.361786
0.361786
0.361827
0.361867
0.361908
0.361949
0.361949
0.36199
0.36203
0.362071
0.362112
0.362112
0.362153
0.362194
0.362235
0.362276
0.362276
0.362317
0.362358
0.362399
0.36244
0.36244
0.362482
0.362523
0.362564
0.362605
0.362605
0.362647
0.362688
0.362729
0.362771
0.362771
0.362812
0.362853
0.362895
0.362936
0.362936
0.362978
0.363019
0.363061
0.363103
0.363103
0.363144
0.363186
0.363228
0.363269
0.363269
0.363311
0.363353
0.363395
0.363437
0.363437
0.363478
0.36352
0.363562
0.363604
0.363604
0.363646
0.363688
0.36373
0.363772
0.363772
0.363814
0.363857
0.363899
0.363941
0.363941
0.363983
0.364025
0.364068
0.36411
0.36411
0.364152
0.364195
0.364237
0.36428
0.36428
0.364322
0.364364
0.364407
0.36445
0.36445
0.364492
0.364535
0.364577
0.36462
0.36462
0.364663
0.364705
0.364748
0.364791
0.364791
0.364834
0.364877
0.364919
0.364962
0.364962
0.365005
0.365048
0.365091
0.365134
0.365134
0.365177
0.36522
0.365263
0.365307
0.365307
0.36535
0.365393
0.365436
0.365479
0.365479
0.365523
0.365566
0.365609
0.365653
0.365653
0.365696
0.36574
0.365783
0.365826
0.365826
0.36587
0.365914
0.365957
0.366001
0.366001
0.366044
0.366088
0.366132
0.366175
0.366175
0.366219
0.366263
0.366307
0.366351
0.366351
0.366394
0.366438
0.366482
0.366526
0.366526
0.36657
0.366614
0.366658
0.366702
0.366702
0.366746
0.366791
0.366835
0.366879
0.366879
0.366923
0.366967
0.367012
0.367056
0.367056
0.3671
0.367145
0.367189
0.367233
0.367233
0.367278
0.367322
0.367367
0.367411
0.367411
0.367456
0.367501
0.367545
0.36759
0.36759
0.367635
0.367679
0.367724
0.367769
0.367769
0.367814
0.367858
0.367903
0.367948
0.367948
0.367993
0.368038
0.368083
0.368128
0.368128
0.368173
0.368218
0.368263
0.368308
0.368308
0.368353
0.368399
0.368444
0.368489
0.368489
0.368534
0.36858
0.368625
0.36867
0.36867
0.368716
0.368761
0.368807
0.368852
0.368852
0.368898
0.368943
0.368989
0.369034
0.369034
0.36908
0.369125
0.369171
0.369217
0.369217
0.369263
0.369308
0.369354
0.3694
0.3694
0.369446
0.369492
0.369538
0.369584
0.369584
0.36963
0.369676
0.369722
0.369768
0.369768
0.369814
0.36986
0.369906
0.369952
0.369952
0.369998
0.370045
0.370091
0.370137
0.370137
0.370183
0.37023
0.370276
0.370323
0.370323
0.370369
0.370415
0.370462
0.370508
0.370508
0.370555
0.370602
0.370648
0.370695
0.370695
0.370741
0.370788
0.370835
0.370882
0.370882
0.370928
0.370975
0.371022
0.371069
0.371069
0.371116
0.371163
0.37121
0.371257
0.371257
0.371304
0.371351
0.371398
0.371445
0.371445
0.371492
0.371539
0.371586
0.371634
0.371634
0.371681
0.371728
0.371775
0.371823
0.371823
0.37187
0.371918
0.371965
0.372012
0.372012
0.37206
0.372107
0.372155
0.372203
0.372203
0.37225
0.372298
0.372345
0.372393
0.372393
0.372441
0.372489
0.372536
0.372584
0.372584
0.372632
0.37268
0.372728
0.372776
0.372776
0.372824
0.372871
0.372919
0.372968
0.372968
0.373016
0.373064
0.373112
0.37316
0.37316
0.373208
0.373256
0.373305
0.373353
0.373353
0.373401
0.373449
0.373498
0.373546
0.373546
0.373595
0.373643
0.373691
0.37374
0.37374
0.373788
0.373837
0.373886
0.373934
0.373934
0.373983
0.374032
0.37408
0.374129
0.374129
0.374178
0.374226
0.374275
0.374324
0.374324
0.374373
0.374422
0.374471
0.37452
0.37452
0.374569
0.374618
0.374667
0.374716
0.374716
0.374765
0.374814
0.374863
0.374912
0.374912
0.374962
0.375011
0.37506
0.37511
0.37511
0.375159
0.375208
0.375258
0.375307
0.375307
0.375356
0.375406
0.375455
0.375505
0.375505
0.375555
0.375604
0.375654
0.375703
0.375703
0.375753
0.375803
0.375853
0.375902
0.375902
0.375952
0.376002
0.376052
0.376102
0.376102
0.376152
0.376201
0.376251
0.376301
0.376301
0.376351
0.376402
0.376452
0.376502
0.376502
0.376552
0.376602
0.376652
0.376702
0.376702
0.376753
0.376803
0.376853
0.376904
0.376904
0.376954
0.377004
0.377055
0.377105
0.377105
0.377156
0.377206
0.377257
0.377307
0.377307
0.377358
0.377409
0.377459
0.37751
0.37751
0.377561
0.377611
0.377662
0.377713
0.377713
0.377764
0.377815
0.377866
0.377917
0.377917
0.377967
0.378018
0.378069
0.37812
0.37812
0.378172
0.378223
0.378274
0.378325
0.378325
0.378376
0.378427
0.378479
0.37853
0.37853
0.378581
0.378632
0.378684
0.378735
0.378735
0.378787
0.378838
0.378889
0.378941
0.378941
0.378992
0.379044
0.379096
0.379147
0.379147
0.379199
0.37925
0.379302
0.379354
0.379354
0.379406
0.379457
0.379509
0.379561
0.379561
0.379613
0.379665
0.379717
0.379769
0.379769
0.379821
0.379873
0.379925
0.379977
0.379977
0.380029
0.380081
0.380133
0.380185
0.380185
0.380238
0.38029
0.380342
0.380394
0.380394
0.380447
0.380499
0.380551
0.380604
0.380604
0.380656
0.380709
0.380761
0.380814
0.380814
0.380866
0.380919
0.380971
0.381024
0.381024
0.381077
0.38113
0.381182
0.381235
0.381235
0.381288
0.381341
0.381393
0.381446
0.381446
0.381499
0.381552
0.381605
0.381658
0.381658
0.381711
0.381764
0.381817
0.38187
0.38187
0.381923
0.381977
0.38203
0.382083
0.382083
0.382136
0.382189
0.382243
0.382296
0.382296
0.382349
0.382403
0.382456
0.38251
0.38251
0.382563
0.382617
0.38267
0.382724
0.382724
0.382777
0.382831
0.382885
0.382938
0.382938
0.382992
0.383046
0.383099
0.383153
0.383153
0.383207
0.383261
0.383315
0.383369
0.383369
0.383422
0.383476
0.38353
0.383584
0.383584
0.383638
0.383693
0.383747
0.383801
0.383801
0.383855
0.383909
0.383963
0.384018
0.384018
0.384072
0.384126
0.38418
0.384235
0.384235
0.384289
0.384344
0.384398
0.384452
0.384452
0.384507
0.384562
0.384616
0.384671
0.384671
0.384725
0.38478
0.384835
0.384889
0.384889
0.384944
0.384999
0.385054
0.385108
0.385108
0.385163
0.385218
0.385273
0.385328
0.385328
0.385383
0.385438
0.385493
0.385548
0.385548
0.385603
0.385658
0.385713
0.385768
0.385768
0.385823
0.385879
0.385934
0.385989
0.385989
0.386044
0.3861
0.386155
0.38621
0.38621
0.386266
0.386321
0.386377
0.386432
0.386432
0.386488
0.386543
0.386599
0.386654
0.386654
0.38671
0.386766
0.386821
0.386877
0.386877
0.386933
0.386989
0.387045
0.3871
0.3871
0.387156
0.387212
0.387268
0.387324
0.387324
0.38738
0.387436
0.387492
0.387548
0.387548
0.387604
0.38766
0.387716
0.387773
0.387773
0.387829
0.387885
0.387941
0.387997
0.387997
0.388054
0.38811
0.388166
0.388223
0.388223
0.388279
0.388336
0.388392
0.388449
0.388449
0.388505
0.388562
0.388618
0.388675
0.388675
0.388732
0.388788
0.388845
0.388902
0.388902
0.388959
0.389015
0.389072
0.389129
0.389129
0.389186
0.389243
0.3893
0.389357
0.389357
0.389414
0.389471
0.389528
0.389585
0.389585
0.389642
0.389699
0.389756
0.389814
0.389814
0.389871
0.389928
0.389985
0.390043
0.390043
0.3901
0.390157
0.390215
0.390272
0.390272
0.390329
0.390387
0.390444
0.390502
0.390502
0.39056
0.390617
0.390675
0.390732
0.390732
0.39079
0.390848
0.390905
0.390963
0.390963
0.391021
0.391079
0.391137
0.391195
0.391195
0.391252
0.39131
0.391368
0.391426
0.391426
0.391484
0.391542
0.3916
0.391658
0.391658
0.391717
0.391775
0.391833
0.391891
0.391891
0.391949
0.392008
0.392066
0.392124
0.392124
0.392183
0.392241
0.392299
0.392358
0.392358
0.392416
0.392475
0.392533
0.392592
0.392592
0.39265
0.392709
0.392768
0.392826
0.392826
0.392885
0.392944
0.393002
0.393061
0.393061
0.39312
0.393179
0.393238
0.393296
0.393296
0.393355
0.393414
0.393473
0.393532
0.393532
0.393591
0.39365
0.393709
0.393768
0.393768
0.393828
0.393887
0.393946
0.394005
0.394005
0.394064
0.394124
0.394183
0.394242
0.394242
0.394302
0.394361
0.39442
0.39448
0.39448
0.394539
0.394599
0.394658
0.394718
0.394718
0.394778
0.394837
0.394897
0.394956
0.394956
0.395016
0.395076
0.395136
0.395195
0.395195
0.395255
0.395315
0.395375
0.395435
0.395435
0.395495
0.395555
0.395615
0.395675
0.395675
0.395735
0.395795
0.395855
0.395915
0.395915
0.395975
0.396035
0.396095
0.396156
0.396156
0.396216
0.396276
0.396336
0.396397
0.396397
0.396457
0.396518
0.396578
0.396638
0.396638
0.396699
0.396759
0.39682
0.39688
0.39688
0.396941
0.397002
0.397062
0.397123
0.397123
0.397184
0.397244
0.397305
0.397366
0.397366
0.397427
0.397488
0.397548
0.397609
0.397609
0.39767
0.397731
0.397792
0.397853
0.397853
0.397914
0.397975
0.398036
0.398097
0.398097
0.398159
0.39822
0.398281
0.398342
0.398342
0.398403
0.398465
0.398526
0.398587
0.398587
0.398649
0.39871
0.398772
0.398833
0.398833
0.398895
0.398956
0.399018
0.399079
0.399079
0.399141
0.399202
0.399264
0.399326
0.399326
0.399387
0.399449
0.399511
0.399573
0.399573
0.399634
0.399696
0.399758
0.39982
0.39982
0.399882
0.399944
0.400006
0.400068
0.400068
0.40013
0.400192
0.400254
0.400316
0.400316
0.400378
0.400441
0.400503
0.400565
0.400565
0.400627
0.40069
0.400752
0.400814
0.400814
0.400877
0.400939
0.401001
0.401064
0.401064
0.401126
0.401189
0.401251
0.401314
0.401314
0.401377
0.401439
0.401502
0.401564
0.401564
0.401627
0.40169
0.401753
0.401815
0.401815
0.401878
0.401941
0.402004
0.402067
0.402067
0.40213
0.402193
0.402256
0.402319
0.402319
0.402382
0.402445
0.402508
0.402571
0.402571
0.402634
0.402697
0.402761
0.402824
0.402824
0.402887
0.40295
0.403014
0.403077
0.403077
0.40314
0.403204
0.403267
0.403331
0.403331
0.403394
0.403458
0.403521
0.403585
0.403585
0.403648
0.403712
0.403775
0.403839
0.403839
0.403903
0.403967
0.40403
0.404094
0.404094
0.404158
0.404222
0.404286
0.404349
0.404349
0.404413
0.404477
0.404541
0.404605
0.404605
0.404669
0.404733
0.404798
0.404862
0.404862
0.404926
0.40499
0.405054
0.405118
0.405118
0.405183
0.405247
0.405311
0.405375
0.405375
0.40544
0.405504
0.405569
0.405633
0.405633
0.405698
0.405762
0.405827
0.405891
0.405891
0.405956
0.40602
0.406085
0.40615
0.40615
0.406214
0.406279
0.406344
0.406409
0.406409
0.406473
0.406538
0.406603
0.406668
0.406668
0.406733
0.406798
0.406863
0.406928
0.406928
0.406993
0.407058
0.407123
0.407188
0.407188
0.407253
0.407318
0.407383
0.407449
0.407449
0.407514
0.407579
0.407644
0.40771
0.40771
0.407775
0.40784
0.407906
0.407971
0.407971
0.408037
0.408102
0.408168
0.408233
0.408233
0.408299
0.408364
0.40843
0.408496
0.408496
0.408561
0.408627
0.408693
0.408759
0.408759
0.408824
0.40889
0.408956
0.409022
0.409022
0.409088
0.409154
0.40922
0.409286
0.409286
0.409352
0.409418
0.409484
0.40955
0.40955
0.409616
0.409682
0.409748
0.409815
0.409815
0.409881
0.409947
0.410013
0.41008
0.41008
0.410146
0.410212
0.410279
0.410345
0.410345
0.410412
0.410478
0.410545
0.410611
0.410611
0.410678
0.410744
0.410811
0.410877
0.410877
0.410944
0.411011
0.411077
0.411144
0.411144
0.411211
0.411278
0.411345
0.411411
0.411411
0.411478
0.411545
0.411612
0.411679
0.411679
0.411746
0.411813
0.41188
0.411947
0.411947
0.412014
0.412082
0.412149
0.412216
0.412216
0.412283
0.41235
0.412418
0.412485
0.412485
0.412552
0.41262
0.412687
0.412754
0.412754
0.412822
0.412889
0.412957
0.413024
0.413024
0.413092
0.413159
0.413227
0.413294
0.413294
0.413362
0.41343
0.413497
0.413565
0.413565
0.413633
0.413701
0.413769
0.413836
0.413836
0.413904
0.413972
0.41404
0.414108
0.414108
0.414176
0.414244
0.414312
0.41438
0.41438
0.414448
0.414516
0.414584
0.414653
0.414653
0.414721
0.414789
0.414857
0.414925
0.414925
0.414994
0.415062
0.41513
0.415199
0.415199
0.415267
0.415336
0.415404
0.415473
0.415473
0.415541
0.41561
0.415678
0.415747
0.415747
0.415815
0.415884
0.415953
0.416021
0.416021
0.41609
0.416159
0.416228
0.416296
0.416296
0.416365
0.416434
0.416503
0.416572
0.416572
0.416641
0.41671
0.416779
0.416848
0.416848
0.416917
0.416986
0.417055
0.417124
0.417124
0.417193
0.417263
0.417332
0.417401
0.417401
0.41747
0.41754
0.417609
0.417678
0.417678
0.417748
0.417817
0.417887
0.417956
0.417956
0.418026
0.418095
0.418165
0.418234
0.418234
0.418304
0.418373
0.418443
0.418513
0.418513
0.418582
0.418652
0.418722
0.418792
0.418792
0.418861
0.418931
0.419001
0.419071
0.419071
0.419141
0.419211
0.419281
0.419351
0.419351
0.419421
0.419491
0.419561
0.419631
0.419631
0.419701
0.419771
0.419842
0.419912
0.419912
0.419982
0.420052
0.420123
0.420193
0.420193
0.420263
0.420334
0.420404
0.420475
0.420475
0.420545
0.420615
0.420686
0.420757
0.420757
0.420827
0.420898
0.420968
0.421039
0.421039
0.42111
0.42118
0.421251
0.421322
0.421322
0.421393
0.421463
0.421534
0.421605
0.421605
0.421676
0.421747
0.421818
0.421889
0.421889
0.42196
0.422031
0.422102
0.422173
0.422173
0.422244
0.422315
0.422386
0.422457
0.422457
0.422529
0.4226
0.422671
0.422742
0.422742
0.422814
0.422885
0.422956
0.423028
0.423028
0.423099
0.423171
0.423242
0.423314
0.423314
0.423385
0.423457
0.423528
0.4236
0.4236
0.423672
0.423743
0.423815
0.423887
0.423887
0.423958
0.42403
0.424102
0.424174
0.424174
0.424246
0.424317
0.424389
0.424461
0.424461
0.424533
0.424605
0.424677
0.424749
0.424749
0.424821
0.424893
0.424966
0.425038
0.425038
0.42511
0.425182
0.425254
0.425327
0.425327
0.425399
0.425471
0.425543
0.425616
0.425616
0.425688
0.425761
0.425833
0.425906
0.425906
0.425978
0.426051
0.426123
0.426196
0.426196
0.426268
0.426341
0.426413
0.426486
0.426486
0.426559
0.426632
0.426704
0.426777
0.426777
0.42685
0.426923
0.426996
0.427069
0.427069
0.427141
0.427214
0.427287
0.42736
0.42736
0.427433
0.427506
0.427579
0.427653
0.427653
0.427726
0.427799
0.427872
0.427945
0.427945
0.428018
0.428092
0.428165
0.428238
0.428238
0.428312
0.428385
0.428458
0.428532
0.428532
0.428605
0.428679
0.428752
0.428826
0.428826
0.428899
0.428973
0.429047
0.42912
0.42912
0.429194
0.429268
0.429341
0.429415
0.429415
0.429489
0.429563
0.429636
0.42971
0.42971
0.429784
0.429858
0.429932
0.430006
0.430006
0.43008
0.430154
0.430228
0.430302
0.430302
0.430376
0.43045
0.430524
0.430598
0.430598
0.430673
0.430747
0.430821
0.430895
0.430895
0.43097
0.431044
0.431118
0.431193
0.431193
0.431267
0.431341
0.431416
0.43149
0.43149
0.431565
0.431639
0.431714
0.431789
0.431789
0.431863
0.431938
0.432012
0.432087
0.432087
0.432162
0.432237
0.432311
0.432386
0.432386
0.432461
0.432536
0.432611
0.432686
0.432686
0.43276
0.432835
0.43291
0.432985
0.432985
0.43306
0.433136
0.433211
0.433286
0.433286
0.433361
0.433436
0.433511
0.433586
0.433586
0.433662
0.433737
0.433812
0.433888
0.433888
0.433963
0.434038
0.434114
0.434189
0.434189
0.434265
0.43434
0.434416
0.434491
0.434491
0.434567
0.434642
0.434718
0.434793
0.434793
0.434869
0.434945
0.43502
0.435096
0.435096
0.435172
0.435248
0.435324
0.435399
0.435399
0.435475
0.435551
0.435627
0.435703
0.435703
0.435779
0.435855
0.435931
0.436007
0.436007
0.436083
0.436159
0.436235
0.436312
0.436312
0.436388
0.436464
0.43654
0.436617
0.436617
0.436693
0.436769
0.436845
0.436922
0.436922
0.436998
0.437075
0.437151
0.437228
0.437228
0.437304
0.437381
0.437457
0.437534
0.437534
0.43761
0.437687
0.437764
0.43784
0.43784
0.437917
0.437994
0.438071
0.438147
0.438147
0.438224
0.438301
0.438378
0.438455
0.438455
0.438532
0.438609
0.438686
0.438763
0.438763
0.43884
0.438917
0.438994
0.439071
0.439071
0.439148
0.439225
0.439302
0.439379
0.439379
0.439457
0.439534
0.439611
0.439689
0.439689
0.439766
0.439843
0.439921
0.439998
0.439998
0.440075
0.440153
0.44023
0.440308
0.440308
0.440385
0.440463
0.440541
0.440618
0.440618
0.440696
0.440774
0.440851
0.440929
0.440929
0.441007
0.441085
0.441162
0.44124
0.44124