<?xml version="1.0"?>
<VTKFile type="UnstructuredGrid" version="0.1" byte_order="LittleEndian">
<UnstructuredGrid>
<Piece NumberOfPoints="5000" NumberOfCells="4000">
<PointData Scalars="Reaction 0">
<DataArray type="Float32" Name="Reaction 0" format="ascii">
0.517966
0.517966
0.517966
0.517966
0.517966
0.517966
0.517966
0.517967
0.517967
0.517967
0.517967
0.517967
0.517968
0.517968
0.517969
0.517969
0.517969
0.51797
0.51797
0.517971
0.517971
0.517971
0.517972
0.517973
0.517973
0.517973
0.517974
0.517975
0.517976
0.517977
0.517977
0.517978
0.517979
0.51798
0.517981
0.517981
0.517982
0.517983
0.517984
0.517985
0.517985
0.517986
0.517988
0.517989
0.51799
0.51799
0.517991
0.517993
0.517994
0.517996
0.517996
0.517997
0.517999
0.518
0.518002
0.518002
0.518004
0.518005
0.518007
0.518009
0.518009
0.518011
0.518013
0.518014
0.518016
0.518016
0.518018
0.51802
0.518022
0.518024
0.518024
0.518027
0.518029
0.518031
0.518033
0.518033
0.518035
0.518038
0.51804
0.518042
0.518042
0.518045
0.518047
0.51805
0.518052
0.518052
0.518055
0.518057
0.51806
0.518063
0.518063
0.518065
0.518068
0.518071
0.518074
0.518074
0.518077
0.518079
0.518082
0.518085
0.518085
0.518088
0.518091
0.518094
0.518098
0.518098
0.518101
0.518104
0.518107
0.51811
0.51811
0.518114
0.518117
0.51812
0.518124
0.518124
0.518127
0.518131
0.518134
0.518138
0.518138
0.518141
0.518145
0.518149
0.518152
0.518152
0.518156
0.51816
0.518164
0.518168
0.518168
0.518172
0.518175
0.518179
0.518183
0.518183
0.518188
0.518192
0.518196
0.5182
0.5182
0.518204
0.518208
0.518213
0.518217
0.518217
0.518221
0.518226
0.51823
0.518234
0.518234
0.518239
0.518244
0.518248
0.518253
0.518253
0.518257
0.518262
0.518267
0.518271
0.518271
0.518276
0.518281
0.518286
0.518291
0.518291
0.518296
0.518301
0.518306
0.518311
0.518311
0.518316
0.518321
0.518326
0.518331
0.518331
0.518337
0.518342
0.518347
0.518353
0.518353
0.518358
0.518363
0.518369
0.518374
0.518374
0.51838
0.518386
0.518391
0.518397
0.518397
0.518403
0.518408
0.518414
0.51842
0.51842
0.518426
0.518432
0.518437
0.518443
0.518443
0.518449
0.518455
0.518462
0.518468
0.518468
0.518474
0.51848
0.518486
0.518492
0.518492
0.518499
0.518505
0.518511
0.518518
0.518518
0.518524
0.518531
0.518537
0.518544
0.518544
0.51855
0.518557
0.518564
0.51857
0.51857
0.518577
0.518584
0.518591
0.518597
0.518597
0.518604
0.518611
0.518618
0.518625
0.518625
0.518632
0.518639
0.518646
0.518654
0.518654
0.518661
0.518668
0.518675
0.518683
0.518683
0.51869
0.518697
0.518705
0.518712
0.518712
0.51872
0.518727
0.518735
0.518742
0.518742
0.51875
0.518758
0.518765
0.518773
0.518773
0.518781
0.518789
0.518797
0.518804
0.518804
0.518812
0.51882
0.518828
0.518836
0.518836
0.518845
0.518853
0.518861
0.518869
0.518869
0.518877
0.518886
0.518894
0.518902
0.518902
0.518911
0.518919
0.518927
0.518936
0.518936
0.518944
0.518953
0.518962
0.51897
0.51897
0.518979
0.518988
0.518996
0.519005
0.519005
0.519014
0.519023
0.519032
0.519041
0.519041
0.51905
0.519059
0.519068
0.519077
0.519077
0.519086
0.519095
0.519105
0.519114
0.519114
0.519123
0.519132
0.519142
0.519151
0.519151
0.519161
0.51917
0.51918
0.519189
0.519189
0.519199
0.519208
0.519218
0.519228
0.519228
0.519237
0.519247
0.519257
0.519267
0.519267
0.519277
0.519287
0.519297
0.519307
0.519307
0.519317
0.519327
0.519337
0.519347
0.519347
0.519357
0.519367
0.519378
0.519388
0.519388
0.519398
0.519409
0.519419
0.519429
0.519429
0.51944
0.519451
0.519461
0.519472
0.519472
0.519482
0.519493
0.519504
0.519514
0.519514
0.519525
0.519536
0.519547
0.519558
0.519558
0.519569
0.51958
0.519591
0.519602
0.519602
0.519613
0.519624
0.519635
0.519646
0.519646
0.519658
0.519669
0.51968
0.519692
0.519692
0.519703
0.519714
0.519726
0.519737
0.519737
0.519749
0.51976
0.519772
0.519784
0.519784
0.519795
0.519807
0.519819
0.519831
0.519831
0.519843
0.519854
0.519866
0.519878
0.519878
0.51989
0.519902
0.519914
0.519926
0.519926
0.519939
0.519951
0.519963
0.519975
0.519975
0.519988
0.52
0.520012
0.520025
0.520025
0.520037
0.52005
0.520062
0.520075
0.520075
0.520087
0.5201
0.520113
0.520125
0.520125
0.520138
0.520151
0.520164
0.520176
0.520176
0.520189
0.520202
0.520215
0.520228
0.520228
0.520241
0.520254
0.520268
0.520281
0.520281
0.520294
0.520307
0.52032
0.520334
0.520334
0.520347
0.52036
0.520374
0.520387
0.520387
0.520401
0.520414
0.520428
0.520442
0.520442
0.520455
0.520469
0.520483
0.520496
0.520496
0.52051
0.520524
0.520538
0.520552
0.520552
0.520566
0.52058
0.520594
0.520608
0.520608
0.520622
0.520636
0.52065
0.520665
0.520665
0.520679
0.520693
0.520707
0.520722
0.520722
0.520736
0.520751
0.520765
0.52078
0.52078
0.520794
0.520809
0.520823
0.520838
0.520838
0.520853
0.520868
0.520882
0.520897
0.520897
0.520912
0.520927
0.520942
0.520957
0.520957
0.520972
0.520987
0.521002
0.521017
0.521017
0.521032
0.521048
0.521063
0.521078
0.521078
0.521093
0.521109
0.521124
0.52114
0.52114
0.521155
0.521171
0.521186
0.521202
0.521202
0.521217
0.521233
0.521249
0.521264
0.521264
0.52128
0.521296
0.521312
0.521328
0.521328
0.521344
0.52136
0.521376
0.521392
0.521392
0.521408
0.521424
0.52144
0.521456
0.521456
0.521472
0.521489
0.521505
0.521521
0.521521
0.521538
0.521554
0.521571
0.521587
0.521587
0.521604
0.52162
0.521637
0.521653
0.521653
0.52167
0.521687
0.521704
0.52172
0.52172
0.521737
0.521754
0.521771
0.521788
0.521788
0.521805
0.521822
0.521839
0.521856
0.521856
0.521873
0.52189
0.521908
0.521925
0.521925
0.521942
0.52196
0.521977
0.521994
0.521994
0.522012
0.522029
0.522047
0.522064
0.522064
0.522082
0.5221
0.522117
0.522135
0.522135
0.522153
0.522171
0.522188
0.522206
0.522206
0.522224
0.522242
0.52226
0.522278
0.522278
0.522296
0.522314
0.522332
0.522351
0.522351
0.522369
0.522387
0.522405
0.522424
0.522424
0.522442
0.52246
0.522479
0.522497
0.522497
0.522516
0.522534
0.522553
0.522572
0.522572
0.52259
0.522609
0.522628
0.522646
0.522646
0.522665
0.522684
0.522703
0.522722
0.522722
0.522741
0.52276
0.522779
0.522798
0.522798
0.522817
0.522836
0.522856
0.522875
0.522875
0.522894
0.522913
0.522933
0.522952
0.522952
0.522972
0.522991
0.523011
0.52303
0.52303
0.52305
0.523069
0.523089
0.523109
0.523109
0.523128
0.523148
0.523168
0.523188
0.523188
0.523208
0.523228
0.523248
0.523268
0.523268
0.523288
0.523308
0.523328
0.523348
0.523348
0.523368
0.523389
0.523409
0.523429
0.523429
0.52345
0.52347
0.52349
0.523511
0.523511
0.523531
0.523552
0.523572
0.523593
0.523593
0.523614
0.523634
0.523655
0.523676
0.523676
0.523697
0.523718
0.523739
0.523759
0.523759
0.52378
0.523801
0.523822
0.523844
0.523844
0.523865
0.523886
0.523907
0.523928
0.523928
0.52395
0.523971
0.523992
0.524014
0.524014
0.524035
0.524057
0.524078
0.5241
0.5241
0.524121
0.524143
0.524164
0.524186
0.524186
0.524208
0.52423
0.524251
0.524273
0.524273
0.524295
0.524317
0.524339
0.524361
0.524361
0.524383
0.524405
0.524427
0.52445
0.52445
0.524472
0.524494
0.524516
0.524539
0.524539
0.524561
0.524583
0.524606
0.524628
0.524628
0.524651
0.524673
0.524696
0.524719
0.524719
0.524741
0.524764
0.524787
0.524809
0.524809
0.524832
0.524855
0.524878
0.524901
0.524901
0.524924
0.524947
0.52497
0.524993
0.524993
0.525016
0.525039
0.525063
0.525086
0.525086
0.525109
0.525132
0.525156
0.525179
0.525179
0.525203
0.525226
0.52525
0.525273
0.525273
0.525297
0.52532
0.525344
0.525368
0.525368
0.525392
0.525415
0.525439
0.525463
0.525463
0.525487
0.525511
0.525535
0.525559
0.525559
0.525583
0.525607
0.525631
0.525655
0.525655
0.52568
0.525704
0.525728
0.525753
0.525753
0.525777
0.525801
0.525826
0.52585
0.52585
0.525875
0.525899
0.525924
0.525949
0.525949
0.525973
0.525998
0.526023
0.526048
0.526048
0.526072
0.526097
0.526122
0.526147
0.526147
0.526172
0.526197
0.526222
0.526247
0.526247
0.526273
0.526298
0.526323
0.526348
0.526348
0.526374
0.526399
0.526424
0.52645
0.52645
0.526475
0.526501
0.526526
0.526552
0.526552
0.526577
0.526603
0.526629
0.526655
0.526655
0.52668
0.526706
0.526732
0.526758
0.526758
0.526784
0.52681
0.526836
0.526862
0.526862
0.526888
0.526914
0.52694
0.526967
0.526967
0.526993
0.527019
0.527045
0.527072
0.527072
0.527098
0.527125
0.527151
0.527178
0.527178
0.527204
0.527231
0.527257
0.527284
0.527284
0.527311
0.527338
0.527364
0.527391
0.527391
0.527418
0.527445
0.527472
0.527499
0.527499
0.527526
0.527553
0.52758
0.527607
0.527607
0.527634
0.527662
0.527689
0.527716
0.527716
0.527744
0.527771
0.527798
0.527826
0.527826
0.527853
0.527881
0.527909
0.527936
0.527936
0.527964
0.527992
0.528019
0.528047
0.528047
0.528075
0.528103
0.528131
0.528159
0.528159
0.528187
0.528215
0.528243
0.528271
0.528271
0.528299
0.528327
0.528355
0.528383
0.528383
0.528412
0.52844
0.528468
0.528497
0.528497
0.528525
0.528554
0.528582
0.528611
0.528611
0.52864
0.528668
0.528697
0.528726
0.528726
0.528754
0.528783
0.528812
0.528841
0.528841
0.52887
0.528899
0.528928
0.528957
0.528957
0.528986
0.529015
0.529044
0.529073
0.529073
0.529103
0.529132
0.529161
0.529191
0.529191
0.52922
0.529249
0.529279
0.529308
0.529308
0.529338
0.529368
0.529397
0.529427
0.529427
0.529457
0.529486
0.529516
0.529546
0.529546
0.529576
0.529606
0.529636
0.529666
0.529666
0.529696
0.529726
0.529756
0.529786
0.529786
0.529816
0.529847
0.529877
0.529907
0.529907
0.529937
0.529968
0.529998
0.530029
0.530029
0.530059
0.53009
0.53012
0.530151
0.530151
0.530182
0.530212
0.530243
0.530274
0.530274
0.530305
0.530336
0.530367
0.530398
0.530398
0.530429
0.53046
0.530491
0.530522
0.530522
0.530553
0.530584
0.530615
0.530647
0.530647
0.530678
0.530709
0.530741
0.530772
0.530772
0.530804
0.530835
0.530867
0.530898
0.530898
0.53093
0.530962
0.530993
0.531025
0.531025
0.531057
0.531089
0.53112
0.531152
0.531152
0.531184
0.531216
0.531248
0.53128
0.53128
0.531313
0.531345
0.531377
0.531409
0.531409
0.531441
0.531474
0.531506
0.531538
0.531538
0.531571
0.531603
0.531636
0.531668
0.531668
0.531701
0.531734
0.531766
0.531799
0.531799
0.531832
0.531865
0.531897
0.53193
0.53193
0.531963
0.531996
0.532029
0.532062
0.532062
0.532095
0.532128
0.532162
0.532195
0.532195
0.532228
0.532261
0.532295
0.532328
0.532328
0.532361
0.532395
0.532428
0.532462
0.532462
0.532495
0.532529
0.532563
0.532596
0.532596
0.53263
0.532664
0.532698
0.532731
0.532731
0.532765
0.532799
0.532833
0.532867
0.532867
0.532901
0.532935
0.532969
0.533004
0.533004
0.533038
0.533072
0.533106
0.533141
0.533141
0.533175
0.533209
0.533244
0.533278
0.533278
0.533313
0.533347
0.533382
0.533417
0.533417
0.533451
0.533486
0.533521
0.533556
0.533556
0.533591
0.533626
0.53366
0.533695
0.533695
0.53373
0.533766
0.533801
0.533836
0.533836
0.533871
0.533906
0.533941
0.533977
0.533977
0.534012
0.534047
0.534083
0.534118
0.534118
0.534154
0.534189
0.534225
0.534261
0.534261
0.534296
0.534332
0.534368
0.534404
0.534404
0.534439
0.534475
0.534511
0.534547
0.534547
0.534583
0.534619
0.534655
0.534691
0.534691
0.534727
0.534764
0.5348
0.534836
0.534836
0.534873
0.534909
0.534945
0.534982
0.534982
0.535018
0.535055
0.535091
0.535128
0.535128
0.535165
0.535201
0.535238
0.535275
0.535275
0.535312
0.535348
0.535385
0.535422
0.535422
0.535459
0.535496
0.535533
0.53557
0.53557
0.535608
0.535645
0.535682
0.535719
0.535719
0.535757
0.535794
0.535831
0.535869
0.535869
0.535906
0.535944
0.535981
0.536019
0.536019
0.536057
0.536094
0.536132
0.53617
0.53617
0.536207
0.536245
0.536283
0.536321
0.536321
0.536359
0.536397
0.536435
0.536473
0.536473
0.536511
0.53655
0.536588
0.536626
0.536626
0.536664
0.536703
0.536741
0.536779
0.536779
0.536818
0.536856
0.536895
0.536934
0.536934
0.536972
0.537011
0.53705
0.537088
0.537088
0.537127
0.537166
0.537205
0.537244
0.537244
0.537283
0.537322
0.537361
0.5374
0.5374
0.537439
0.537478
0.537517
0.537557
0.537557
0.537596
0.537635
0.537675
0.537714
0.537714
0.537753
0.537793
0.537832
0.537872
0.537872
0.537912
0.537951
0.537991
0.538031
0.538031
0.538071
0.53811
0.53815
0.53819
0.53819
0.53823
0.53827
0.53831
0.53835
0.53835
0.53839
0.538431
0.538471
0.538511
0.538511
0.538551
0.538592
0.538632
0.538672
0.538672
0.538713
0.538753
0.538794
0.538834
0.538834
0.538875
0.538916
0.538956
0.538997
0.538997
0.539038
0.539079
0.53912
0.539161
0.539161
0.539202
0.539243
0.539284
0.539325
0.539325
0.539366
0.539407
0.539448
0.53949
0.53949
0.539531
0.539572
0.539614
0.539655
0.539655
0.539696
0.539738
0.539779
0.539821
0.539821
0.539863
0.539904
0.539946
0.539988
0.539988
0.54003
0.540071
0.540113
0.540155
0.540155
0.540197
0.540239
0.540281
0.540323
0.540323
0.540366
0.540408
0.54045
0.540492
0.540492
0.540534
0.540577
0.540619
0.540662
0.540662
0.540704
0.540747
0.540789
0.540832
0.540832
0.540874
0.540917
0.54096
0.541003
0.541003
0.541045
0.541088
0.541131
0.541174
0.541174
0.541217
0.54126
0.541303
0.541346
0.541346
0.541389
0.541433
0.541476
0.541519
0.541519
0.541562
0.541606
0.541649
0.541693
0.541693
0.541736
0.54178
0.541823
0.541867
0.541867
0.541911
0.541954
0.541998
0.542042
0.542042
0.542086
0.54213
0.542173
0.542217
0.542217
0.542261
0.542305
0.54235
0.542394
0.542394
0.542438
0.542482
0.542526
0.542571
0.542571
0.542615
0.542659
0.542704
0.542748
0.542748
0.542793
0.542837
0.542882
0.542927
0.542927
0.542971
0.543016
0.543061
0.543106
0.543106
0.54315
0.543195
0.54324
0.543285
0.543285
0.54333
0.543375
0.54342
0.543466
0.543466
0.543511
0.543556
0.543601
0.543647
0.543647
0.543692
0.543737
0.543783
0.543828
0.543828
0.543874
0.54392
0.543965
0.544011
0.544011
0.544057
0.544102
0.544148
0.544194
0.544194
0.54424
0.544286
0.544332
0.544378
0.544378
0.544424
0.54447
0.544516
0.544562
0.544562
0.544608
0.544655
0.544701
0.544747
0.544747
0.544794
0.54484
0.544887
0.544933
0.544933
0.54498
0.545026
0.545073
0.54512
0.54512
0.545167
0.545213
0.54526
0.545307
0.545307
0.545354
0.545401
0.545448
0.545495
0.545495
0.545542
0.545589
0.545637
0.545684
0.545684
0.545731
0.545778
0.545826
0.545873
0.545873
0.545921
0.545968
0.546016
0.546063
0.546063
0.546111
0.546158
0.546206
0.546254
0.546254
0.546302
0.546349
0.546397
0.546445
0.546445
0.546493
0.546541
0.546589
0.546637
0.546637
0.546686
0.546734
0.546782
0.54683
0.54683
0.546879
0.546927
0.546975
0.547024
0.547024
0.547072
0.547121
0.547169
0.547218
0.547218
0.547267
0.547315
0.547364
0.547413
0.547413
0.547462
0.547511
0.54756
0.547609
0.547609
0.547658
0.547707
0.547756
0.547805
0.547805
0.547854
0.547903
0.547953
0.548002
0.548002
0.548051
0.548101
0.54815
0.5482
0.5482
0.548249
0.548299
0.548349
0.548398
0.548398
0.548448
0.548498
0.548547
0.548597
0.548597
0.548647
0.548697
0.548747
0.548797
0.548797
0.548847
0.548897
0.548948
0.548998
0.548998
0.549048
0.549098
0.549149
0.549199
0.549199
0.549249
0.5493
0.54935
0.549401
0.549401
0.549452
0.549502
0.549553
0.549604
0.549604
0.549655
0.549705
0.549756
0.549807
0.549807
0.549858
0.549909
0.54996
0.550011
0.550011
0.550062
0.550114
0.550165
0.550216
0.550216
0.550267
0.550319
0.55037
0.550422
0.550422
0.550473
0.550525
0.550576
0.550628
0.550628
0.55068
0.550731
0.550783
0.550835
0.550835
0.550887
0.550939
0.550991
0.551043
0.551043
0.551095
0.551147
0.551199
0.551251
0.551251
0.551303
0.551355
0.551408
0.55146
0.55146
0.551513
0.551565
0.551617
0.55167
0.55167
0.551723
0.551775
0.551828
0.551881
0.551881
0.551933
0.551986
0.552039
0.552092
0.552092
0.552145
0.552198
0.552251
0.552304
0.552304
0.552357
0.55241
0.552463
0.552517
0.552517
0.55257
0.552623
0.552677
0.55273
0.55273
0.552783
0.552837
0.552891
0.552944
0.552944
0.552998
0.553051
0.553105
0.553159
0.553159
0.553213
0.553267
0.553321
0.553375
0.553375
0.553429
0.553483
0.553537
0.553591
0.553591
0.553645
0.553699
0.553754
0.553808
0.553808
0.553862
0.553917
0.553971
0.554026
0.554026
0.55408
0.554135
0.55419
0.554244
0.554244
0.554299
0.554354
0.554409
0.554464
0.554464
0.554519
0.554574
0.554629
0.554684
0.554684
0.554739
0.554794
0.554849
0.554904
0.554904
0.55496
0.555015
0.55507
0.555126
0.555126
0.555181
0.555237
0.555292
0.555348
0.555348
0.555404
0.555459
0.555515
0.555571
0.555571
0.555627
0.555683
0.555739
0.555795
0.555795
0.555851
0.555907
0.555963
0.556019
0.556019
0.556075
0.556131
0.556188
0.556244
0.556244
0.5563
0.556357
0.556413
0.55647
0.55647
0.556526
0.556583
0.55664
0.556696
0.556696
0.556753
0.55681
0.556867
0.556924
0.556924
0.556981
0.557038
0.557095
0.557152
0.557152
0.557209
0.557266
0.557323
0.557381
0.557381
0.557438
0.557495
0.557553
0.55761
0.55761
0.557668
0.557725
0.557783
0.557841
0.557841
0.557898
0.557956
0.558014
0.558072
0.558072
0.55813
0.558187
0.558245
0.558303
0.558303
0.558362
0.55842
0.558478
0.558536
0.558536
0.558594
0.558653
0.558711
0.558769
0.558769
0.558828
0.558886
0.558945
0.559003
0.559003
0.559062
0.559121
0.559179
0.559238
0.559238
0.559297
0.559356
0.559415
0.559474
0.559474
0.559533
0.559592
0.559651
0.55971
0.55971
0.559769
0.559828
0.559888
0.559947
0.559947
0.560005
0.560063
0.560121
0.560178
0.560178
0.560235
0.560293
0.56035
0.560408
0.560408
0.560465
0.560523
0.56058
0.560638
0.560638
0.560696
0.560754
0.560811
0.560869
0.560869
0.560927
0.560985
0.561043
0.561101
0.561101
0.561159
0.561217
0.561275
0.561333
0.561333
0.561392
0.561449
0.561506
0.561561
0.561561
0.561617
0.561672
0.561728
0.561784
0.561784
0.561839
0.561895
0.561951
0.562007
0.562007
0.562063
0.562119
0.562175
0.562231
0.562231
0.562287
0.562343
0.562399
0.562455
0.562455
0.562511
0.562567
0.562624
0.56268
0.56268
0.562736
0.562792
0.562847
0.562902
0.562902
0.562956
0.563009
0.563063
0.563116
0.563116
0.56317
0.563224
0.563278
0.563331
0.563331
0.563385
0.563439
0.563493
0.563547
0.563547
0.563601
0.563655
0.563709
0.563763
0.563763
0.563817
0.563871
0.563925
0.563979
0.563979
0.564034
0.564087
0.564141
0.564194
0.564194
0.564246
0.564297
0.564349
0.5644
0.5644
0.564452
0.564503
0.564555
0.564607
0.564607
0.564658
0.56471
0.564762
0.564814
0.564814
0.564865
0.564917
0.564969
0.565021
0.565021
0.565073
0.565125
0.565177
0.565229
0.565229
0.565281
0.565333
0.565384
0.565435
0.565435
0.565485
0.565534
0.565584
0.565633
0.565633
0.565683
0.565732
0.565782
0.565831
0.565831
0.565881
0.565931
0.56598
0.56603
0.56603
0.56608
0.566129
0.566179
0.566229
0.566229
0.566279
0.566328
0.566378
0.566428
0.566428
0.566478
0.566527
0.566576
0.566625
0.566625
0.566673
0.56672
0.566768
0.566815
0.566815
0.566863
0.56691
0.566958
0.567005
0.567005
0.567053
0.5671
0.567148
0.567195
0.567195
0.567243
0.56729
0.567338
0.567386
0.567386
0.567434
0.567481
0.567529
0.567577
0.567577
0.567624
0.567671
0.567718
0.567764
0.567764
0.56781
0.567855
0.567901
0.567946
0.567946
0.567992
0.568037
0.568082
0.568128
0.568128
0.568173
0.568219
0.568264
0.56831
0.56831
0.568356
0.568401
0.568447
0.568493
0.568493
0.568538
0.568584
0.568629
0.568675
0.568675
0.56872
0.568765
0.568809
0.568853
0.568853
0.568896
0.56894
0.568983
0.569027
0.569027
0.56907
0.569114
0.569157
0.569201
0.569201
0.569244
0.569288
0.569331
0.569375
0.569375
0.569419
0.569462
0.569506
0.56955
0.56955
0.569593
0.569637
0.56968
0.569723
0.569723
0.569766
0.569808
0.56985
0.569892
0.569892
0.569933
0.569975
0.570016
0.570058
0.570058
0.570099
0.570141
0.570183
0.570224
0.570224
0.570266
0.570308
0.570349
0.570391
0.570391
0.570433
0.570474
0.570516
0.570558
0.570558
0.570599
0.57064
0.570681
0.570722
0.570722
0.570762
0.570802
0.570842
0.570882
0.570882
0.570922
0.570961
0.571001
0.571041
0.571041
0.57108
0.57112
0.57116
0.5712
0.5712
0.571239
0.571279
0.571319
0.571359
0.571359
0.571399
0.571439
0.571478
0.571518
0.571518
0.571557
0.571596
0.571634
0.571673
0.571673
0.571711
0.571749
0.571787
0.571824
0.571824
0.571862
0.5719
0.571938
0.571976
0.571976
0.572014
0.572052
0.57209
0.572128
0.572128
0.572166
0.572204
0.572242
0.57228
0.57228
0.572318
0.572355
0.572393
0.57243
0.57243
0.572467
0.572503
0.57254
0.572576
0.572576
0.572612
0.572648
0.572685
0.572721
0.572721
0.572757
0.572793
0.572829
0.572866
0.572866
0.572902
0.572938
0.572974
0.573011
0.573011
0.573047
0.573083
0.573119
0.573155
0.573155
0.57319
0.573226
0.573261
0.573296
0.573296
0.57333
0.573365
0.5734
0.573434
0.573434
0.573469
0.573503
0.573538
0.573572
0.573572
0.573607
0.573641
0.573676
0.57371
0.57371
0.573745
0.57378
0.573814
0.573848
0.573848
0.573883
0.573917
0.573951
0.573984
0.573984
0.574018
0.574051
0.574084
0.574117
0.574117
0.57415
0.574183
0.574216
0.574248
0.574248
0.574281
0.574314
0.574347
0.57438
0.57438
0.574413
0.574446
0.574479
0.574512
0.574512
0.574545
0.574577
0.57461
0.574642
0.574642
0.574674
0.574706
0.574738
0.574769
0.574769
0.574801
0.574832
0.574864
0.574895
0.574895
0.574926
0.574958
0.574989
0.575021
0.575021
0.575052
0.575083
0.575115
0.575146
0.575146
0.575177
0.575209
0.57524
0.575271
0.575271
0.575302
0.575332
0.575363
0.575393
0.575393
0.575423
0.575453
0.575483
0.575513
0.575513
0.575543
0.575573
0.575602
0.575632
0.575632
0.575662
0.575692
0.575722
0.575752
0.575752
0.575782
0.575812
0.575841
0.575871
0.575871
0.575901
0.57593
0.575959
0.575988
0.575988
0.576017
0.576045
0.576074
0.576102
0.576102
0.576131
0.576159
0.576188
0.576216
0.576216
0.576245
0.576273
0.576302
0.57633
0.57633
0.576359
0.576387
0.576416
0.576444
0.576444
0.576472
0.5765
0.576528
0.576556
0.576556
0.576583
0.57661
0.576638
0.576665
0.576665
0.576692
0.576719
0.576746
0.576773
0.576773
0.576801
0.576828
0.576855
0.576882
0.576882
0.576909
0.576936
0.576963
0.57699
0.57699
0.577017
0.577044
0.57707
0.577097
0.577097
0.577123
0.577149
0.577175
0.577201
0.577201
0.577227
0.577253
0.577279
0.577304
0.577304
0.57733
0.577356
0.577382
0.577408
0.577408
0.577434
0.577459
0.577485
0.577511
0.577511
0.577536
0.577562
0.577587
0.577612
0.577612
0.577637
0.577662
0.577687
0.577712
0.577712
0.577736
0.577761
0.577786
0.57781
0.57781
0.577835
0.577859
0.577884
0.577909
0.577909
0.577933
0.577958
0.577982
0.578007
0.578007
0.578031
0.578055
0.578079
0.578103
0.578103
0.578127
0.578151
0.578175
0.578198
0.578198
0.578222
0.578245
0.578268
0.578292
0.578292
0.578315
0.578339
0.578362
0.578385
0.578385
0.578409
0.578432
0.578455
0.578479
0.578479
0.578502
0.578525
0.578548
0.578571
0.578571
0.578593
0.578616
0.578638
0.578661
0.578661
0.578683
0.578705
0.578728
0.57875
0.57875
0.578772
0.578795
0.578817
0.578839
0.578839
0.578861
0.578884
0.578906
0.578928
0.578928
0.57895
0.578972
0.578994
0.579015
0.579015
0.579037
0.579058
0.57908
0.579101
0.579101
0.579122
0.579143
0.579165
0.579186
0.579186
0.579207
0.579228
0.579249
0.579271
0.579271
0.579292
0.579313
0.579334
0.579355
0.579355
0.579376
0.579397
0.579417
0.579438
0.579438
0.579458
0.579479
0.579499
0.579519
0.579519
0.57954
0.57956
0.57958
0.5796
0.5796
0.57962
0.579641
0.579661
0.579681
0.579681
0.579701
0.579721
0.579741
0.579761
0.579761
0.579781
0.5798
0.57982
0.57984
0.57984
0.579859
0.579878
0.579898
0.579917
0.579917
0.579936
0.579955
0.579975
0.579994
0.579994
0.580013
0.580032
0.580051
0.580071
0.580071
0.58009
0.580109
0.580128
0.580146
0.580146
0.580165
0.580184
0.580203
0.580221
0.580221
0.58024
0.580258
0.580276
0.580295
0.580295
0.580313
0.580331
0.58035
0.580368
0.580368
0.580386
0.580404
0.580423
0.580441
0.580441
0.580459
0.580477
0.580495
0.580513
0.580513
0.58053
0.580548
0.580566
0.580583
0.580583
0.580601
0.580618
0.580636
0.580653
0.580653
0.580671
0.580688
0.580706
0.580723
0.580723
0.58074
0.580758
0.580775
0.580792
0.580792
0.580809
0.580826
0.580843
0.58086
0.58086
0.580877
0.580894
0.580911
0.580927
0.580927
0.580944
0.580961
0.580977
0.580994
0.580994
0.58101
0.581027
0.581044
0.58106
0.58106
0.581077
0.581093
0.581109
0.581126
0.581126
0.581142
0.581158
0.581174
0.58119
0.58119
0.581206
0.581222
0.581238
0.581254
0.581254
0.58127
0.581286
0.581301
0.581317
0.581317
0.581333
0.581349
0.581364
0.58138
0.58138
0.581396
0.581411
0.581427
0.581442
0.581442
0.581458
0.581473
0.581488
0.581503
0.581503
0.581518
0.581534
0.581549
0.581564
0.581564
0.581579
0.581594
0.581609
0.581624
0.581624
0.581639
0.581654
0.581669
0.581684
0.581684
0.581698
0.581713
0.581728
0.581742
0.581742
0.581757
0.581771
0.581786
0.5818
0.5818
0.581815
0.581829
0.581843
0.581858
0.581858
0.581872
0.581886
0.581901
0.581915
0.581915
0.581929
0.581943
0.581957
0.581971
0.581971
0.581985
0.581999
0.582013
0.582027
0.582027
0.582041
0.582055
0.582068
0.582082
0.582082
0.582096
0.582109
0.582123
0.582137
0.582137
0.58215
0.582164
0.582178
0.582191
0.582191
0.582205
0.582218
0.582231
0.582245
0.582245
0.582258
0.582271
0.582284
0.582297
0.582297
0.58231
0.582323
0.582336
0.58235
0.58235
0.582363
0.582376
0.582389
0.582401
0.582401
0.582414
0.582427
0.58244
0.582453
0.582453
0.582466
0.582478
0.582491
0.582503
0.582503
0.582516
0.582529
0.582541
0.582554
0.582554
0.582566
0.582578
0.582591
0.582603
0.582603
0.582616
0.582628
0.58264
0.582653
0.582653
0.582665
0.582677
0.582689
0.582701
0.582701
0.582713
0.582725
0.582737
0.582749
0.582749
0.582761
0.582773
0.582785
0.582797
0.582797
0.582809
0.58282
0.582832
0.582844
0.582844
0.582856
0.582867
0.582879
0.582891
0.582891
0.582902
0.582914
0.582925
0.582937
0.582937
0.582948
0.582959
0.582971
0.582982
0.582982
0.582994
0.583005
0.583016
0.583027
0.583027
0.583039
0.58305
0.583061
0.583072
0.583072
0.583083
0.583094
0.583105
0.583116
0.583116
0.583127
0.583138
0.583149
0.58316
0.58316
0.583171
0.583182
0.583193
0.583203
0.583203
0.583214
0.583225
0.583236
0.583246
0.583246
0.583257
0.583268
0.583278
0.583289
0.583289
0.583299
0.58331
0.58332
0.583331
0.583331
0.583341
0.583352
0.583362
0.583372
0.583372
0.583383
0.583393
0.583403
0.583413
0.583413
0.583424
0.583434
0.583444
0.583454
0.583454
0.583464
0.583474
0.583484
0.583494
0.583494
0.583504
0.583514
0.583524
0.583534
0.583534
0.583544
0.583554
0.583564
0.583574
0.583574
0.583584
0.583593
0.583603
0.583613
0.583613
0.583623
0.583632
0.583642
0.583651
0.583651
0.583661
0.583671
0.58368
0.58369
0.58369
0.583699
0.583709
0.583718
0.583727
0.583727
0.583737
0.583746
0.583756
0.583765
0.583765
0.583774
0.583784
0.583793
0.583802
0.583802
0.583811
0.58382
0.58383
0.583839
0.583839
0.583848
0.583857
0.583866
0.583875
0.583875
0.583884
0.583893
0.583902
0.583911
0.583911
0.58392
0.583929
0.583938
0.583947
0.583947
0.583955
0.583964
0.583973
0.583982
0.583982
0.583991
0.583999
0.584008
0.584017
0.584017
0.584025
0.584034
0.584043
0.584051
0.584051
0.58406
0.584068
0.584077
0.584085
0.584085
0.584094
0.584102
0.584111
0.584119
0.584119
0.584128
0.584136
0.584144
0.584153
0.584153
0.584161
0.584169
0.584178
0.584186
0.584186
0.584194
0.584202
0.584211
0.584219
0.584219
0.584227
0.584235
0.584243
0.584251
0.584251
0.584259
0.584267
0.584275
0.584283
0.584283
0.584291
0.584299
0.584307
0.584315
0.584315
0.584323
0.584331
0.584339
0.584347
0.584347
0.584355
0.584363
0.58437
0.584378
0.584378
0.584386
0.584394
0.584401
0.584409
0.584409
0.584417
0.584424
0.584432
0.58444
0.58444
0.584447
0.584455
0.584463
0.58447
0.58447
0.584478
0.584485
0.584493
0.5845
0.5845
0.584508
0.584515
0.584522
0.58453
0.58453
0.584537
0.584545
0.584552
0.584559
0.584559
0.584567
0.584574
0.584581
0.584589
0.584589
0.584596
0.584603
0.58461
0.584617
0.584617
0.584625
0.584632
0.584639
0.584646
0.584646
0.584653
0.58466
0.584667
0.584674
0.584674
0.584682
0.584689
0.584696
0.584703
0.584703
0.58471
0.584717
0.584724
0.58473
0.58473
0.584737
0.584744
0.584751
0.584758
0.584758
0.584765
0.584772
0.584779
0.584785
0.584785
0.584792
0.584799
0.584806
0.584812
0.584812
0.584819
0.584826
0.584833
0.584839
0.584839
0.584846
0.584853
0.584859
0.584866
0.584866
0.584872
0.584879
0.584886
0.584892
0.584892
0.584899
0.584905
0.584912
0.584918
0.584918
0.584925
0.584931
0.584938
0.584944
0.584944
0.58495
0.584957
0.584963
0.58497
0.58497
0.584976
0.584982
0.584989
0.584995
0.584995
0.585001
0.585008
0.585014
0.58502
0.58502
0.585026
0.585033
0.585039
0.585045
0.585045
0.585051
0.585057
0.585064
0.58507
0.58507
0.585076
0.585082
0.585088
0.585094
0.585094
0.5851
0.585106
0.585113
0.585119
0.585119
0.585125
0.585131
0.585137
0.585143
0.585143
0.585149
0.585155
0.585161
0.585166
0.585166
0.585172
0.585178
0.585184
0.58519
0.58519
0.585196
0.585202
0.585208
0.585214
0.585214
0.585219
0.585225
0.585231
0.585237
0.585237
0.585243
0.585248
0.585254
0.58526
0.58526
0.585266
0.585271
0.585277
0.585283
0.585283
0.585288
0.585294
0.5853
0.585305
0.585305
0.585311
0.585317
0.585322
0.585328
0.585328
0.585333
0.585339
0.585345
0.58535
0.58535
0.585356
0.585361
0.585367
0.585372
0.585372
0.585378
0.585383
0.585389
0.585394
0.585394
0.5854
0.585405
0.585411
0.585416
0.585416
0.585421
0.585427
0.585432
0.585437
0.585437
0.585443
0.585448
0.585454
0.585459
0.585459
0.585464
0.58547
0.585475
0.58548
0.58548
0.585485
0.585491
0.585496
0.585501
0.585501
0.585506
0.585512
0.585517
0.585522
0.585522
0.585527
0.585532
0.585538
0.585543
0.585543
0.585548
0.585553
0.585558
0.585563
0.585563
0.585569
0.585574
0.585579
0.585584
0.585584
0.585589
0.585594
0.585599
0.585604
0.585604
0.585609
0.585614
0.585619
0.585624
0.585624
0.585629
0.585634
0.585639
0.585644
0.585644
0.585649
0.585654
0.585659
0.585664
0.585664
0.585669
0.585674
0.585679
0.585684
0.585684
0.585689
0.585693
0.585698
0.585703
0.585703
0.585708
0.585713
0.585718
0.585723
0.585723
0.585727
0.585732
0.585737
0.585742
0.585742
0.585747
0.585751
0.585756
0.585761
0.585761
0.585766
0.58577
0.585775
0.58578
0.58578
0.585785
0.585789
0.585794
0.585799
0.585799
0.585803
0.585808
0.585813
0.585817
0.585817
0.585822
0.585827
0.585831
0.585836
0.585836
0.585841
0.585845
0.58585
0.585854
0.585854
0.585859
0.585864
0.585868
0.585873
0.585873
0.585877
0.585882
0.585886
0.585891
0.585891
0.585896
0.5859
0.585905
0.585909
0.585909
0.585914
0.585918
0.585923
0.585927
0.585927
0.585932
0.585936
0.58594
0.585945
0.585945
0.585949
0.585954
0.585958
0.585963
0.585963
0.585967
0.585971
0.585976
0.58598
0.58598
0.585985
0.585989
0.585993
0.585998
0.585998
0.586002
0.586007
0.586011
0.586015
0.586015
0.58602
0.586024
0.586028
0.586033
0.586033
0.586037
0.586041
0.586045
0.58605
0.58605
0.586054
0.586058
0.586063
0.586067
0.586067
0.586071
0.586075
0.58608
0.586084
0.586084
0.586088
0.586092
0.586097
0.586101
0.586101
0.586105
0.586109
0.586113
0.586118
0.586118
0.586122
0.586126
0.58613
0.586134
0.586134
0.586138
0.586143
0.586147
0.586151
0.586151
0.586155
0.586159
0.586163
0.586167
0.586167