<?xml version="1.0"?>
<VTKFile type="UnstructuredGrid" version="0.1" byte_order="LittleEndian">
<UnstructuredGrid>
<Piece NumberOfPoints="5000" NumberOfCells="4000">
<PointData Scalars="Reaction 0">
<DataArray type="Float32" Name="Reaction 0" format="ascii">
0.627464
0.627464
0.627464
0.627464
0.627464
0.627464
0.627464
0.627464
0.627464
0.627464
0.627464
0.627464
0.627464
0.627464
0.627464
0.627464
0.627464
0.627464
0.627464
0.627464
0.627464
0.627464
0.627464
0.627464
0.627464
0.627464
0.627464
0.627464
0.627464
0.627464
0.627464
0.627464
0.627464
0.627464
0.627465
0.627465
0.627465
0.627465
0.627465
0.627465
0.627465
0.627465
0.627465
0.627465
0.627465
0.627465
0.627465
0.627465
0.627465
0.627465
0.627465
0.627465
0.627465
0.627465
0.627466
0.627466
0.627466
0.627466
0.627466
0.627466
0.627466
0.627466
0.627466
0.627466
0.627466
0.627466
0.627466
0.627466
0.627466
0.627467
0.627467
0.627467
0.627467
0.627467
0.627467
0.627467
0.627467
0.627467
0.627467
0.627467
0.627467
0.627467
0.627468
0.627468
0.627468
0.627468
0.627468
0.627468
0.627468
0.627468
0.627468
0.627468
0.627469
0.627469
0.627469
0.627469
0.627469
0.627469
0.627469
0.627469
0.627469
0.627469
0.62747
0.62747
0.62747
0.62747
0.62747
0.62747
0.62747
0.62747
0.62747
0.627471
0.627471
0.627471
0.627471
0.627471
0.627471
0.627471
0.627472
0.627472
0.627472
0.627472
0.627472
0.627472
0.627472
0.627472
0.627473
0.627473
0.627473
0.627473
0.627473
0.627473
0.627473
0.627474
0.627474
0.627474
0.627474
0.627474
0.627474
0.627475
0.627475
0.627475
0.627475
0.627475
0.627475
0.627475
0.627476
0.627476
0.627476
0.627476
0.627476
0.627476
0.627477
0.627477
0.627477
0.627477
0.627477
0.627477
0.627478
0.627478
0.627478
0.627478
0.627478
0.627479
0.627479
0.627479
0.627479
0.627479
0.62748
0.62748
0.62748
0.62748
0.62748
0.62748
0.627481
0.627481
0.627481
0.627481
0.627481
0.627482
0.627482
0.627482
0.627482
0.627482
0.627483
0.627483
0.627483
0.627483
0.627483
0.627484
0.627484
0.627484
0.627484
0.627484
0.627485
0.627485
0.627485
0.627485
0.627486
0.627486
0.627486
0.627486
0.627486
0.627487
0.627487
0.627487
0.627487
0.627488
0.627488
0.627488
0.627488
0.627488
0.627489
0.627489
0.627489
0.627489
0.62749
0.62749
0.62749
0.62749
0.62749
0.627491
0.627491
0.627491
0.627492
0.627492
0.627492
0.627492
0.627493
0.627493
0.627493
0.627493
0.627494
0.627494
0.627494
0.627494
0.627495
0.627495
0.627495
0.627495
0.627495
0.627496
0.627496
0.627496
0.627497
0.627497
0.627497
0.627497
0.627498
0.627498
0.627498
0.627499
0.627499
0.627499
0.6275
0.6275
0.6275
0.6275
0.627501
0.627501
0.627501
0.627501
0.627502
0.627502
0.627502
0.627502
0.627503
0.627503
0.627504
0.627504
0.627504
0.627504
0.627505
0.627505
0.627505
0.627505
0.627506
0.627506
0.627507
0.627507
0.627507
0.627507
0.627508
0.627508
0.627508
0.627508
0.627509
0.627509
0.62751
0.62751
0.62751
0.62751
0.627511
0.627511
0.627512
0.627512
0.627512
0.627512
0.627513
0.627513
0.627513
0.627514
0.627514
0.627514
0.627515
0.627515
0.627515
0.627516
0.627516
0.627517
0.627517
0.627517
0.627517
0.627518
0.627518
0.627518
0.627519
0.627519
0.62752
0.62752
0.62752
0.62752
0.627521
0.627521
0.627522
0.627522
0.627522
0.627523
0.627523
0.627524
0.627524
0.627524
0.627525
0.627525
0.627525
0.627525
0.627526
0.627526
0.627527
0.627527
0.627527
0.627528
0.627528
0.627529
0.627529
0.627529
0.62753
0.62753
0.627531
0.627531
0.627531
0.627532
0.627532
0.627533
0.627533
0.627533
0.627533
0.627534
0.627534
0.627535
0.627535
0.627535
0.627536
0.627536
0.627537
0.627537
0.627537
0.627538
0.627538
0.627539
0.627539
0.627539
0.62754
0.62754
0.627541
0.627541
0.627542
0.627542
0.627543
0.627543
0.627543
0.627544
0.627544
0.627545
0.627545
0.627545
0.627546
0.627546
0.627547
0.627547
0.627547
0.627548
0.627548
0.627549
0.627549
0.627549
0.62755
0.627551
0.627551
0.627552
0.627552
0.627552
0.627553
0.627553
0.627554
0.627554
0.627554
0.627555
0.627555
0.627556
0.627556
0.627557
0.627557
0.627558
0.627558
0.627558
0.627559
0.627559
0.62756
0.627561
0.627561
0.627561
0.627562
0.627562
0.627563
0.627563
0.627563
0.627564
0.627565
0.627565
0.627565
0.627566
0.627566
0.627567
0.627568
0.627568
0.627568
0.627569
0.627569
0.62757
0.62757
0.627571
0.627571
0.627572
0.627572
0.627572
0.627573
0.627574
0.627574
0.627575
0.627575
0.627575
0.627576
0.627577
0.627577
0.627577
0.627578
0.627579
0.627579
0.62758
0.62758
0.62758
0.627581
0.627582
0.627582
0.627582
0.627583
0.627584
0.627584
0.627585
0.627585
0.627586
0.627586
0.627587
0.627587
0.627587
0.627588
0.627589
0.627589
0.62759
0.62759
0.627591
0.627591
0.627592
0.627593
0.627593
0.627593
0.627594
0.627595
0.627595
0.627595
0.627596
0.627597
0.627597
0.627598
0.627598
0.627599
0.627599
0.6276
0.627601
0.627601
0.627601
0.627602
0.627603
0.627604
0.627604
0.627604
0.627605
0.627606
0.627606
0.627606
0.627607
0.627608
0.627608
0.627609
0.627609
0.62761
0.62761
0.627611
0.627612
0.627612
0.627613
0.627613
0.627614
0.627615
0.627615
0.627615
0.627616
0.627617
0.627618
0.627618
0.627618
0.627619
0.62762
0.627621
0.627621
0.627621
0.627622
0.627623
0.627623
0.627623
0.627624
0.627625
0.627626
0.627626
0.627626
0.627627
0.627628
0.627629
0.627629
0.627629
0.62763
0.627631
0.627632
0.627632
0.627632
0.627633
0.627634
0.627635
0.627635
0.627635
0.627636
0.627637
0.627638
0.627639
0.627639
0.627639
0.62764
0.627641
0.627642
0.627642
0.627642
0.627643
0.627644
0.627645
0.627645
0.627646
0.627646
0.627647
0.627648
0.627648
0.627649
0.627649
0.62765
0.627651
0.627651
0.627652
0.627653
0.627653
0.627654
0.627654
0.627655
0.627656
0.627657
0.627657
0.627657
0.627658
0.627659
0.62766
0.627661
0.627661
0.627662
0.627662
0.627663
0.627664
0.627664
0.627665
0.627666
0.627666
0.627667
0.627667
0.627668
0.627669
0.62767
0.627671
0.627671
0.627671
0.627672
0.627673
0.627674
0.627674
0.627675
0.627676
0.627677
0.627677
0.627677
0.627678
0.627679
0.62768
0.627681
0.627681
0.627682
0.627682
0.627683
0.627684
0.627684
0.627685
0.627686
0.627687
0.627688
0.627688
0.627689
0.627689
0.62769
0.627691
0.627691
0.627692
0.627693
0.627694
0.627695
0.627695
0.627696
0.627696
0.627697
0.627698
0.627698
0.627699
0.6277
0.627701
0.627702
0.627702
0.627703
0.627704
0.627704
0.627705
0.627705
0.627706
0.627707
0.627708
0.627709
0.627709
0.62771
0.627711
0.627712
0.627713
0.627713
0.627714
0.627714
0.627715
0.627716
0.627716
0.627717
0.627718
0.627719
0.62772
0.62772
0.627721
0.627722
0.627723
0.627724
0.627724
0.627725
0.627726
0.627727
0.627728
0.627728
0.627728
0.627729
0.62773
0.627731
0.627731
0.627732
0.627733
0.627734
0.627735
0.627735
0.627736
0.627737
0.627738
0.627739
0.627739
0.62774
0.627741
0.627742
0.627743
0.627743
0.627744
0.627745
0.627746
0.627747
0.627747
0.627748
0.627749
0.62775
0.627751
0.627751
0.627752
0.627753
0.627754
0.627755
0.627755
0.627756
0.627757
0.627758
0.627759
0.627759
0.627759
0.62776
0.627761
0.627762
0.627762
0.627763
0.627764
0.627766
0.627767
0.627767
0.627768
0.627769
0.62777
0.627771
0.627771
0.627772
0.627773
0.627774
0.627775
0.627775
0.627776
0.627777
0.627778
0.627779
0.627779
0.62778
0.627781
0.627782
0.627783
0.627783
0.627784
0.627785
0.627786
0.627787
0.627787
0.627788
0.627789
0.62779
0.627791
0.627791
0.627792
0.627793
0.627794
0.627795
0.627795
0.627796
0.627797
0.627799
0.6278
0.6278
0.627801
0.627802
0.627803
0.627804
0.627804
0.627805
0.627806
0.627807
0.627808
0.627808
0.627809
0.62781
0.627811
0.627812
0.627812
0.627814
0.627815
0.627816
0.627817
0.627817
0.627818
0.627819
0.62782
0.627821
0.627821
0.627822
0.627823
0.627824
0.627826
0.627826
0.627827
0.627828
0.627829
0.62783
0.62783
0.627831
0.627832
0.627833
0.627834
0.627834
0.627835
0.627837
0.627838
0.627839
0.627839
0.62784
0.627841
0.627842
0.627843
0.627843
0.627844
0.627846
0.627847
0.627848
0.627848
0.627849
0.62785
0.627851
0.627852
0.627852
0.627854
0.627855
0.627856
0.627857
0.627857
0.627858
0.627859
0.62786
0.627862
0.627862
0.627863
0.627864
0.627865
0.627866
0.627866
0.627867
0.627868
0.62787
0.627871
0.627871
0.627872
0.627873
0.627874
0.627875
0.627875
0.627877
0.627878
0.627879
0.62788
0.62788
0.627881
0.627883
0.627884
0.627885
0.627885
0.627886
0.627887
0.627888
0.62789
0.62789
0.627891
0.627892
0.627893
0.627894
0.627894
0.627896
0.627897
0.627898
0.627899
0.627899
0.6279
0.627902
0.627903
0.627904
0.627904
0.627905
0.627906
0.627908
0.627909
0.627909
0.62791
0.627911
0.627913
0.627914
0.627914
0.627915
0.627916
0.627917
0.627919
0.627919
0.62792
0.627921
0.627922
0.627924
0.627924
0.627925
0.627926
0.627927
0.627929
0.627929
0.62793
0.627931
0.627932
0.627934
0.627934
0.627935
0.627936
0.627937
0.627939
0.627939
0.62794
0.627941
0.627942
0.627944
0.627944
0.627945
0.627946
0.627947
0.627949
0.627949
0.62795
0.627951
0.627952
0.627954
0.627954
0.627955
0.627956
0.627958
0.627959
0.627959
0.62796
0.627961
0.627963
0.627964
0.627964
0.627965
0.627967
0.627968
0.627969
0.627969
0.62797
0.627972
0.627973
0.627974
0.627974
0.627976
0.627977
0.627978
0.62798
0.62798
0.627981
0.627982
0.627983
0.627985
0.627985
0.627986
0.627987
0.627989
0.62799
0.62799
0.627991
0.627993
0.627994
0.627995
0.627995
0.627997
0.627998
0.627999
0.628001
0.628001
0.628002
0.628003
0.628005
0.628006
0.628006
0.628007
0.628009
0.62801
0.628011
0.628011
0.628013
0.628014
0.628015
0.628017
0.628017
0.628018
0.628019
0.628021
0.628022
0.628022
0.628024
0.628025
0.628026
0.628028
0.628028
0.628029
0.62803
0.628032
0.628033
0.628033
0.628034
0.628036
0.628037
0.628039
0.628039
0.62804
0.628041
0.628043
0.628044
0.628044
0.628045
0.628047
0.628048
0.62805
0.62805
0.628051
0.628052
0.628054
0.628055
0.628055
0.628057
0.628058
0.628059
0.628061
0.628061
0.628062
0.628064
0.628065
0.628066
0.628066
0.628068
0.628069
0.628071
0.628072
0.628072
0.628073
0.628075
0.628076
0.628078
0.628078
0.628079
0.628081
0.628082
0.628083
0.628083
0.628085
0.628086
0.628088
0.628089
0.628089
0.628091
0.628092
0.628093
0.628095
0.628095
0.628096
0.628098
0.628099
0.628101
0.628101
0.628102
0.628104
0.628105
0.628106
0.628106
0.628108
0.628109
0.628111
0.628112
0.628112
0.628114
0.628115
0.628117
0.628118
0.628118
0.62812
0.628121
0.628123
0.628124
0.628124
0.628125
0.628127
0.628128
0.62813
0.62813
0.628131
0.628133
0.628134
0.628136
0.628136
0.628137
0.628139
0.62814
0.628142
0.628142
0.628143
0.628145
0.628146
0.628148
0.628148
0.628149
0.628151
0.628152
0.628154
0.628154
0.628155
0.628157
0.628158
0.62816
0.62816
0.628161
0.628163
0.628164
0.628166
0.628166
0.628167
0.628169
0.62817
0.628172
0.628172
0.628173
0.628175
0.628176
0.628178
0.628178
0.62818
0.628181
0.628183
0.628184
0.628184
0.628186
0.628187
0.628189
0.62819
0.62819
0.628192
0.628193
0.628195
0.628196
0.628196
0.628198
0.6282
0.628201
0.628203
0.628203
0.628204
0.628206
0.628207
0.628209
0.628209
0.62821
0.628212
0.628214
0.628215
0.628215
0.628217
0.628218
0.62822
0.628221
0.628221
0.628223
0.628225
0.628226
0.628228
0.628228
0.628229
0.628231
0.628232
0.628234
0.628234
0.628236
0.628237
0.628239
0.62824
0.62824
0.628242
0.628244
0.628245
0.628247
0.628247
0.628248
0.62825
0.628252
0.628253
0.628253
0.628255
0.628256
0.628258
0.62826
0.62826
0.628261
0.628263
0.628264
0.628266
0.628266
0.628268
0.628269
0.628271
0.628273
0.628273
0.628274
0.628276
0.628277
0.628279
0.628279
0.628281
0.628282
0.628284
0.628286
0.628286
0.628287
0.628289
0.62829
0.628292
0.628292
0.628294
0.628295
0.628297
0.628299
0.628299
0.6283
0.628302
0.628304
0.628305
0.628305
0.628307
0.628309
0.62831
0.628312
0.628312
0.628314
0.628315
0.628317
0.628319
0.628319
0.62832
0.628322
0.628324
0.628325
0.628325
0.628327
0.628329
0.62833
0.628332
0.628332
0.628334
0.628335
0.628337
0.628339
0.628339
0.62834
0.628342
0.628344
0.628345
0.628345
0.628347
0.628349
0.62835
0.628352
0.628352
0.628354
0.628356
0.628357
0.628359
0.628359
0.628361
0.628362
0.628364
0.628366
0.628366
0.628367
0.628369
0.628371
0.628373
0.628373
0.628374
0.628376
0.628378
0.62838
0.62838
0.628381
0.628383
0.628385
0.628386
0.628386
0.628388
0.62839
0.628392
0.628393
0.628393
0.628395
0.628397
0.628399
0.6284
0.6284
0.628402
0.628404
0.628406
0.628407
0.628407
0.628409
0.628411
0.628412
0.628414
0.628414
0.628416
0.628418
0.628419
0.628421
0.628421
0.628423
0.628425
0.628427
0.628428
0.628428
0.62843
0.628432
0.628434
0.628435
0.628435
0.628437
0.628439
0.628441
0.628442
0.628442
0.628444
0.628446
0.628448
0.62845
0.62845
0.628451
0.628453
0.628455
0.628457
0.628457
0.628459
0.62846
0.628462
0.628464
0.628464
0.628466
0.628467
0.628469
0.628471
0.628471
0.628473
0.628475
0.628476
0.628478
0.628478
0.62848
0.628482
0.628484
0.628486
0.628486
0.628487
0.628489
0.628491
0.628493
0.628493
0.628495
0.628496
0.628498
0.6285
0.6285
0.628502
0.628504
0.628506
0.628507
0.628507
0.628509
0.628511
0.628513
0.628515
0.628515
0.628517
0.628518
0.62852
0.628522
0.628522
0.628524
0.628526
0.628528
0.62853
0.62853
0.628531
0.628533
0.628535
0.628537
0.628537
0.628539
0.628541
0.628542
0.628544
0.628544
0.628546
0.628548
0.62855
0.628552
0.628552
0.628554
0.628556
0.628557
0.628559
0.628559
0.628561
0.628563
0.628565
0.628567
0.628567
0.628569
0.628571
0.628572
0.628574
0.628574
0.628576
0.628578
0.62858
0.628582
0.628582
0.628584
0.628586
0.628588
0.62859
0.62859
0.628591
0.628593
0.628595
0.628597
0.628597
0.628599
0.628601
0.628603
0.628605
0.628605
0.628607
0.628609
0.62861
0.628612
0.628612
0.628614
0.628616
0.628618
0.62862
0.62862
0.628622
0.628624
0.628626
0.628628
0.628628
0.62863
0.628632
0.628634
0.628636
0.628636
0.628637
0.628639
0.628641
0.628643
0.628643
0.628645
0.628647
0.628649
0.628651
0.628651
0.628653
0.628655
0.628657
0.628659
0.628659
0.628661
0.628663
0.628665
0.628667
0.628667
0.628669
0.628671
0.628673
0.628675
0.628675
0.628677
0.628678
0.62868
0.628682
0.628682
0.628684
0.628686
0.628688
0.62869
0.62869
0.628692
0.628694
0.628696
0.628698
0.628698
0.6287
0.628702
0.628704
0.628706
0.628706
0.628708
0.62871
0.628712
0.628714
0.628714
0.628716
0.628718
0.62872
0.628722
0.628722
0.628724
0.628726
0.628728
0.62873
0.62873
0.628732
0.628734
0.628736
0.628738
0.628738
0.62874
0.628742
0.628744
0.628746
0.628746
0.628748
0.62875
0.628752
0.628754
0.628754
0.628756
0.628758
0.62876
0.628763
0.628763
0.628765
0.628767
0.628769
0.628771
0.628771
0.628773
0.628775
0.628777
0.628779
0.628779
0.628781
0.628783
0.628785
0.628787
0.628787
0.628789
0.628791
0.628793
0.628795
0.628795
0.628797
0.628799
0.628801
0.628803
0.628803
0.628806
0.628808
0.62881
0.628812
0.628812
0.628814
0.628816
0.628818
0.62882
0.62882
0.628822
0.628824
0.628826
0.628828
0.628828
0.62883
0.628832
0.628835
0.628837
0.628837
0.628839
0.628841
0.628843
0.628845
0.628845
0.628847
0.628849
0.628851
0.628853
0.628853
0.628855
0.628858
0.62886
0.628862
0.628862
0.628864
0.628866
0.628868
0.62887
0.62887
0.628872
0.628874
0.628877
0.628879
0.628879
0.628881
0.628883
0.628885
0.628887
0.628887
0.628889
0.628891
0.628894
0.628896
0.628896
0.628898
0.6289
0.628902
0.628904
0.628904
0.628906
0.628908
0.628911
0.628913
0.628913
0.628915
0.628917
0.628919
0.628921
0.628921
0.628923
0.628926
0.628928
0.62893
0.62893
0.628932
0.628934
0.628936
0.628939
0.628939
0.628941
0.628943
0.628945
0.628947
0.628947
0.628949
0.628951
0.628954
0.628956
0.628956
0.628958
0.62896
0.628962
0.628965
0.628965
0.628967
0.628969
0.628971
0.628973
0.628973
0.628975
0.628978
0.62898
0.628982
0.628982
0.628984
0.628986
0.628989
0.628991
0.628991
0.628993
0.628995
0.628997
0.629
0.629
0.629002
0.629004
0.629006
0.629008
0.629008
0.629011
0.629013
0.629015
0.629017
0.629017
0.629019
0.629022
0.629024
0.629026
0.629026
0.629028
0.629031
0.629033
0.629035
0.629035
0.629037
0.629039
0.629042
0.629044
0.629044
0.629046
0.629048
0.629051
0.629053
0.629053
0.629055
0.629057
0.62906
0.629062
0.629062
0.629064
0.629066
0.629068
0.629071
0.629071
0.629073
0.629075
0.629077
0.62908
0.62908
0.629082
0.629084
0.629086
0.629089
0.629089
0.629091
0.629093
0.629096
0.629098
0.629098
0.6291
0.629102
0.629105
0.629107
0.629107
0.629109
0.629111
0.629114
0.629116
0.629116
0.629118
0.629121
0.629123
0.629125
0.629125
0.629127
0.62913
0.629132
0.629134
0.629134
0.629137
0.629139
0.629141
0.629143
0.629143
0.629146
0.629148
0.62915
0.629153
0.629153
0.629155
0.629157
0.62916
0.629162
0.629162
0.629164
0.629166
0.629169
0.629171
0.629171
0.629173
0.629176
0.629178
0.62918
0.62918
0.629183
0.629185
0.629187
0.62919
0.62919
0.629192
0.629194
0.629197
0.629199
0.629199
0.629201
0.629204
0.629206
0.629208
0.629208
0.629211
0.629213
0.629215
0.629218
0.629218
0.62922
0.629222
0.629225
0.629227
0.629227
0.629229
0.629232
0.629234
0.629236
0.629236
0.629239
0.629241
0.629244
0.629246
0.629246
0.629248
0.629251
0.629253
0.629255
0.629255
0.629258
0.62926
0.629262
0.629265
0.629265
0.629267
0.62927
0.629272
0.629274
0.629274
0.629277
0.629279
0.629282
0.629284
0.629284
0.629286
0.629289
0.629291
0.629293
0.629293
0.629296
0.629298
0.629301
0.629303
0.629303
0.629305
0.629308
0.62931
0.629313
0.629313
0.629315
0.629317
0.62932
0.629322
0.629322
0.629325
0.629327
0.629329
0.629332
0.629332
0.629334
0.629337
0.629339
0.629342
0.629342
0.629344
0.629346
0.629349
0.629351
0.629351
0.629354
0.629356
0.629359
0.629361
0.629361
0.629363
0.629366
0.629368
0.629371
0.629371
0.629373
0.629376
0.629378
0.62938
0.62938
0.629383
0.629385
0.629388
0.62939
0.62939
0.629393
0.629395
0.629398
0.6294
0.6294
0.629403
0.629405
0.629407
0.62941
0.62941
0.629412
0.629415
0.629417
0.62942
0.62942
0.629422
0.629425
0.629427
0.62943
0.62943
0.629432
0.629435
0.629437
0.62944
0.62944
0.629442
0.629445
0.629447
0.62945
0.62945
0.629452
0.629455
0.629457
0.629459
0.629459
0.629462
0.629464
0.629467
0.629469
0.629469
0.629472
0.629474
0.629477
0.629479
0.629479
0.629482
0.629484
0.629487
0.629489
0.629489
0.629492
0.629494
0.629497
0.6295
0.6295
0.629502
0.629505
0.629507
0.62951
0.62951
0.629512
0.629515
0.629517
0.62952
0.62952
0.629522
0.629525
0.629527
0.62953
0.62953
0.629532
0.629535
0.629537
0.62954
0.62954
0.629543
0.629545
0.629548
0.62955
0.62955
0.629553
0.629555
0.629558
0.62956
0.62956
0.629563
0.629565
0.629568
0.629571
0.629571
0.629573
0.629576
0.629578
0.629581
0.629581
0.629583
0.629586
0.629589
0.629591
0.629591
0.629594
0.629596
0.629599
0.629601
0.629601
0.629604
0.629607
0.629609
0.629612
0.629612
0.629614
0.629617
0.629619
0.629622
0.629622
0.629625
0.629627
0.62963
0.629632
0.629632
0.629635
0.629638
0.62964
0.629643
0.629643
0.629645
0.629648
0.629651
0.629653
0.629653
0.629656
0.629658
0.629661
0.629664
0.629664
0.629666
0.629669
0.629671
0.629674
0.629674
0.629677
0.629679
0.629682
0.629685
0.629685
0.629687
0.62969
0.629692
0.629695
0.629695
0.629698
0.6297
0.629703
0.629706
0.629706
0.629708
0.629711
0.629714
0.629716
0.629716
0.629719
0.629721
0.629724
0.629727
0.629727
0.629729
0.629732
0.629735
0.629737
0.629737
0.62974
0.629743
0.629745
0.629748
0.629748
0.629751
0.629753
0.629756
0.629759
0.629759
0.629761
0.629764
0.629767
0.629769
0.629769
0.629772
0.629775
0.629777
0.62978
0.62978
0.629783
0.629785
0.629788
0.629791
0.629791
0.629793
0.629796
0.629799
0.629801
0.629801
0.629804
0.629807
0.62981
0.629812
0.629812
0.629815
0.629818
0.62982
0.629823
0.629823
0.629826
0.629828
0.629831
0.629834
0.629834
0.629837
0.629839
0.629842
0.629845
0.629845
0.629847
0.62985
0.629853
0.629856
0.629856
0.629858
0.629861
0.629864
0.629866
0.629866
0.629869
0.629872
0.629875
0.629877
0.629877
0.62988
0.629883
0.629886
0.629888
0.629888
0.629891
0.629894
0.629897
0.629899
0.629899
0.629902
0.629905
0.629908
0.62991
0.62991
0.629913
0.629916
0.629918
0.629921
0.629921
0.629924
0.629927
0.62993
0.629932
0.629932
0.629935
0.629938
0.629941
0.629943
0.629943
0.629946
0.629949
0.629952
0.629954
0.629954
0.629957
0.62996
0.629963
0.629966
0.629966
0.629968
0.629971
0.629974
0.629977
0.629977
0.629979
0.629982
0.629985
0.629988
0.629988
0.629991
0.629993
0.629996
0.629999
0.629999
0.630002
0.630005
0.630007
0.63001
0.63001
0.630013
0.630016
0.630019
0.630021
0.630021
0.630024
0.630027
0.63003
0.630033
0.630033
0.630036
0.630038
0.630041
0.630044
0.630044
0.630047
0.63005
0.630052
0.630055
0.630055
0.630058
0.630061
0.630064
0.630067
0.630067
0.630069
0.630072
0.630075
0.630078
0.630078
0.630081
0.630084
0.630086
0.630089
0.630089
0.630092
0.630095
0.630098
0.630101
0.630101
0.630104
0.630106
0.630109
0.630112
0.630112
0.630115
0.630118
0.630121
0.630124
0.630124
0.630126
0.630129
0.630132
0.630135
0.630135
0.630138
0.630141
0.630144
0.630147
0.630147
0.630149
0.630152
0.630155
0.630158
0.630158
0.630161
0.630164
0.630167
0.63017
0.63017
0.630173
0.630175
0.630178
0.630181
0.630181
0.630184
0.630187
0.63019
0.630193
0.630193
0.630196
0.630199
0.630202
0.630204
0.630204
0.630207
0.63021
0.630213
0.630216
0.630216
0.630219
0.630222
0.630225
0.630228
0.630228
0.630231
0.630234
0.630236
0.630239
0.630239
0.630242
0.630245
0.630248
0.630251
0.630251
0.630254
0.630257
0.63026
0.630263
0.630263
0.630266
0.630269
0.630272
0.630275
0.630275
0.630278
0.630281
0.630283
0.630286
0.630286
0.630289
0.630292
0.630295
0.630298
0.630298
0.630301
0.630304
0.630307
0.63031
0.63031
0.630313
0.630316
0.630319
0.630322
0.630322
0.630325
0.630328
0.630331
0.630334
0.630334
0.630337
0.63034
0.630343
0.630346
0.630346
0.630349
0.630352
0.630355
0.630358
0.630358
0.630361
0.630364
0.630367
0.63037
0.63037
0.630373
0.630376
0.630379
0.630382
0.630382
0.630385
0.630388
0.630391
0.630394
0.630394
0.630397
0.6304
0.630403
0.630406
0.630406
0.630409
0.630412
0.630415
0.630418
0.630418
0.630421
0.630424
0.630427
0.63043
0.63043
0.630433
0.630436
0.630439
0.630442
0.630442
0.630445
0.630448
0.630451
0.630454
0.630454
0.630457
0.63046
0.630463
0.630466
0.630466
0.630469
0.630472
0.630475
0.630478
0.630478
0.630481
0.630485
0.630488
0.630491
0.630491
0.630494
0.630497
0.6305
0.630503
0.630503
0.630506
0.630509
0.630512
0.630515
0.630515
0.630518
0.630521
0.630524
0.630527
0.630527
0.63053
0.630534
0.630537
0.63054
0.63054
0.630543
0.630546
0.630549
0.630552
0.630552
0.630555
0.630558
0.630561
0.630564
0.630564
0.630568
0.630571
0.630574
0.630577
0.630577
0.63058
0.630583
0.630586
0.630589
0.630589
0.630592
0.630595
0.630599
0.630602
0.630602
0.630605
0.630608
0.630611
0.630614
0.630614
0.630617
0.63062
0.630624
0.630627
0.630627
0.63063
0.630633
0.630636
0.630639
0.630639
0.630642
0.630645
0.630649
0.630652
0.630652
0.630655
0.630658
0.630661
0.630664
0.630664
0.630667
0.630671
0.630674
0.630677
0.630677
0.63068
0.630683
0.630686
0.630689
0.630689
0.630693
0.630696
0.630699
0.630702
0.630702
0.630705
0.630708
0.630712
0.630715
0.630715
0.630718
0.630721
0.630724
0.630727
0.630727
0.630731
0.630734
0.630737
0.63074
0.63074
0.630743
0.630747
0.63075
0.630753
0.630753
0.630756
0.630759
0.630762
0.630766
0.630766
0.630769
0.630772
0.630775
0.630778
0.630778
0.630782
0.630785
0.630788
0.630791
0.630791
0.630795
0.630798
0.630801
0.630804
0.630804
0.630807
0.630811
0.630814
0.630817
0.630817
0.63082
0.630823
0.630827
0.63083
0.63083
0.630833
0.630836
0.63084
0.630843
0.630843
0.630846
0.630849
0.630853
0.630856
0.630856
0.630859
0.630862
0.630866
0.630869
0.630869
0.630872
0.630875
0.630878
0.630882
0.630882
0.630885
0.630888
0.630891
0.630895
0.630895
0.630898
0.630901
0.630905
0.630908
0.630908
0.630911
0.630914
0.630918
0.630921
0.630921
0.630924
0.630927
0.630931
0.630934
0.630934
0.630937
0.630941
0.630944
0.630947
0.630947
0.63095
0.630954
0.630957
0.63096
0.63096
0.630964
0.630967
0.63097
0.630973
0.630973
0.630977
0.63098
0.630983
0.630987
0.630987
0.63099
0.630993
0.630997
0.631
0.631
0.631003
0.631007
0.63101
0.631013
0.631013
0.631016
0.63102
0.631023
0.631026
0.631026
0.63103
0.631033
0.631036
0.63104
0.63104
0.631043
0.631046
0.63105
0.631053
0.631053
0.631056
0.63106
0.631063
0.631066
0.631066
0.63107
0.631073
0.631077
0.63108
0.63108
0.631083
0.631087
0.63109
0.631093
0.631093
0.631097
0.6311
0.631103
0.631107
0.631107
0.63111
0.631113
0.631117
0.63112
0.63112
0.631124
0.631127
0.63113
0.631134
0.631134
0.631137
0.63114
0.631144
0.631147
0.631147
0.631151
0.631154
0.631157
0.631161
0.631161
0.631164
0.631168
0.631171
0.631174
0.631174
0.631178
0.631181
0.631185
0.631188
0.631188
0.631191
0.631195
0.631198
0.631202
0.631202
0.631205
0.631208
0.631212
0.631215
0.631215
0.631219
0.631222
0.631226
0.631229
0.631229
0.631232
0.631236
0.631239
0.631243
0.631243
0.631246
0.63125
0.631253
0.631256
0.631256
0.63126
0.631263
0.631267
0.63127
0.63127
0.631274
0.631277
0.631281
0.631284
0.631284
0.631287
0.631291
0.631294
0.631298
0.631298
0.631301
0.631305
0.631308
0.631312
0.631312
0.631315
0.631319
0.631322
0.631326
0.631326
0.631329
0.631333
0.631336
0.631339
0.631339
0.631343
0.631346
0.63135
0.631353
0.631353
0.631357
0.63136
0.631364
0.631367
0.631367
0.631371
0.631374
0.631378
0.631381
0.631381
0.631385
0.631388
0.631392
0.631395
0.631395
0.631399
0.631402
0.631406
0.631409
0.631409
0.631413
0.631416
0.63142
0.631423
0.631423
0.631427
0.631431
0.631434
0.631438
0.631438
0.631441
0.631445
0.631448
0.631452
0.631452
0.631455
0.631459
0.631462
0.631466
0.631466
0.631469
0.631473
0.631477
0.63148
0.63148
0.631484
0.631487
0.631491
0.631494
0.631494
0.631498
0.631501
0.631505
0.631508
0.631508
0.631512
0.631516
0.631519
0.631523
0.631523
0.631526
0.63153
0.631533
0.631537
0.631537
0.631541
0.631544
0.631548
0.631551
0.631551
0.631555
0.631559
0.631562
0.631566
0.631566
0.631569
0.631573
0.631577
0.63158
0.63158
0.631584
0.631587
0.631591
0.631595
0.631595
0.631598
0.631602
0.631605
0.631609
0.631609
0.631613
0.631616
0.63162
0.631623
0.631623
0.631627
0.631631
0.631634
0.631638
0.631638
0.631642
0.631645
0.631649
0.631652
0.631652
0.631656
0.63166
0.631663
0.631667
0.631667
0.631671
0.631674
0.631678
0.631682
0.631682
0.631685
0.631689
0.631692
0.631696
0.631696
0.6317
0.631703
0.631707
0.631711
0.631711
0.631714
0.631718
0.631722
0.631725
0.631725
0.631729
0.631733
0.631736
0.63174
0.63174
0.631744
0.631747
0.631751
0.631755
0.631755
0.631759
0.631762
0.631766
0.63177
0.63177
0.631773
0.631777
0.631781
0.631784
0.631784
0.631788
0.631792
0.631796
0.631799
0.631799
0.631803
0.631807
0.63181
0.631814
0.631814
0.631818
0.631821
0.631825
0.631829
0.631829
0.631833
0.631836
0.63184
0.631844
0.631844
0.631848
0.631851
0.631855
0.631859
0.631859
0.631862
0.631866
0.63187
0.631874
0.631874
0.631877
0.631881
0.631885
0.631889
0.631889
0.631892
0.631896
0.6319
0.631904
0.631904
0.631907
0.631911
0.631915
0.631919
0.631919
0.631922
0.631926
0.63193
0.631934
0.631934
0.631938
0.631941
0.631945
0.631949
0.631949
0.631953
0.631956
0.63196
0.631964
0.631964
0.631968
0.631972
0.631975
0.631979
0.631979
0.631983
0.631987
0.631991
0.631994
0.631994
0.631998
0.632002
0.632006
0.63201
0.63201
0.632013
0.632017
0.632021
0.632025
0.632025
0.632029
0.632033
0.632036
0.63204
0.63204
0.632044
0.632048
0.632052
0.632055
0.632055
0.632059
0.632063
0.632067
0.632071
0.632071
0.632075
0.632079
0.632082
0.632086
0.632086
0.63209
0.632094
0.632098
0.632102
0.632102
0.632105
0.632109
0.632113
0.632117
0.632117
0.632121
0.632125
0.632129
0.632133
0.632133
0.632136
0.63214
0.632144
0.632148
0.632148
0.632152
0.632156
0.63216
0.632164
0.632164
0.632167
0.632171
0.632175
0.632179
0.632179
0.632183
0.632187
0.632191
0.632195
0.632195
0.632199
0.632203
0.632206
0.63221
0.63221
0.632214
0.632218
0.632222
0.632226
0.632226
0.63223
0.632234
0.632238
0.632242
0.632242
0.632246
0.632249
0.632253
0.632257
0.632257
0.632261
0.632265
0.632269
0.632273
0.632273
0.632277
0.632281
0.632285
0.632289
0.632289
0.632293
0.632297
0.632301
0.632305
0.632305
0.632309
0.632313
0.632317
0.632321
0.632321
0.632324
0.632328
0.632332
0.632336
0.632336
0.63234
0.632344
0.632348
0.632352
0.632352
0.632356
0.63236
0.632364
0.632368
0.632368
0.632372
0.632376
0.63238
0.632384
0.632384
0.632388
0.632392
0.632396
0.6324
0.6324
0.632404
0.632408
0.632412
0.632416
0.632416
0.63242
0.632424
0.632428
0.632432
0.632432
0.632436
0.63244
0.632444
0.632448
0.632448
0.632452
0.632456
0.63246
0.632465
0.632465
0.632469
0.632473
0.632477
0.632481
0.632481
0.632485
0.632489
0.632493
0.632497
0.632497
0.632501
0.632505
0.632509
0.632513
0.632513
0.632517
0.632521
0.632525
0.632529
0.632529
0.632533
0.632537
0.632542
0.632546
0.632546
0.63255
0.632554
0.632558
0.632562
0.632562
0.632566
0.63257
0.632574
0.632578
0.632578
0.632582
0.632586
0.632591
0.632595
0.632595
0.632599
0.632603
0.632607
0.632611
0.632611
0.632615
0.632619
0.632623
0.632628
0.632628
0.632632
0.632636
0.63264
0.632644
0.632644
0.632648
0.632652
0.632656
0.632661
0.632661
0.632665
0.632669
0.632673
0.632677
0.632677
0.632681
0.632685
0.63269
0.632694
0.632694
0.632698
0.632702
0.632706
0.63271
0.63271
0.632714
0.632719
0.632723
0.632727
0.632727
0.632731
0.632735
0.632739
0.632744
0.632744
0.632748
0.632752
0.632756
0.63276
0.63276
0.632765
0.632769
0.632773
0.632777
0.632777
0.632781
0.632786
0.63279
0.632794
0.632794
0.632798
0.632802
0.632806
0.632811
0.632811
0.632815
0.632819
0.632823
0.632828
0.632828
0.632832
0.632836
0.63284
0.632844
0.632844
0.632849
0.632853
0.632857
0.632861
0.632861
0.632866
0.63287
0.632874
0.632878
0.632878
0.632883
0.632887
0.632891
0.632895
0.632895
0.6329
0.632904
0.632908
0.632912
0.632912
0.632917
0.632921
0.632925
0.632929
0.632929
0.632934
0.632938
0.632942
0.632947
0.632947
0.632951
0.632955
0.632959
0.632964
0.632964
0.632968
0.632972
0.632977
0.632981
0.632981
0.632985
0.632989
0.632994
0.632998
0.632998
0.633002
0.633007
0.633011
0.633015
0.633015
0.63302
0.633024
0.633028
0.633033
0.633033
0.633037
0.633041
0.633045
0.63305
0.63305
0.633054
0.633058
0.633063
0.633067
0.633067
0.633072
0.633076
0.63308
0.633085
0.633085
0.633089
0.633093
0.633098
0.633102
0.633102
0.633106
0.633111
0.633115
0.633119
0.633119
0.633124
0.633128
0.633133
0.633137
0.633137
0.633141
0.633146
0.63315
0.633154
0.633154
0.633159
0.633163
0.633168
0.633172
0.633172
0.633176
0.633181
0.633185
0.63319
0.63319
0.633194
0.633198
0.633203
0.633207
0.633207
0.633212
0.633216
0.63322
0.633225
0.633225
0.633229
0.633234
0.633238
0.633243
0.633243
0.633247
0.633251
0.633256
0.63326
0.63326
0.633265
0.633269