<?xml version="1.0"?>
<VTKFile type="UnstructuredGrid" version="0.1" byte_order="LittleEndian">
<UnstructuredGrid>
<Piece NumberOfPoints="5000" NumberOfCells="4000">
<PointData Scalars="Reaction 0">
<DataArray type="Float32" Name="Reaction 0" format="ascii">
0.647133
0.647133
0.647133
0.647133
0.647133
0.647133
0.647133
0.647133
0.647133
0.647133
0.647133
0.647134
0.647134
0.647134
0.647134
0.647134
0.647134
0.647134
0.647134
0.647134
0.647134
0.647134
0.647134
0.647134
0.647134
0.647134
0.647134
0.647134
0.647134
0.647134
0.647134
0.647134
0.647135
0.647135
0.647135
0.647135
0.647135
0.647135
0.647135
0.647135
0.647135
0.647135
0.647135
0.647136
0.647136
0.647136
0.647136
0.647136
0.647136
0.647136
0.647136
0.647136
0.647137
0.647137
0.647137
0.647137
0.647137
0.647137
0.647137
0.647138
0.647138
0.647138
0.647138
0.647138
0.647138
0.647138
0.647138
0.647139
0.647139
0.647139
0.647139
0.647139
0.647139
0.64714
0.64714
0.64714
0.64714
0.64714
0.647141
0.647141
0.647141
0.647141
0.647141
0.647141
0.647142
0.647142
0.647142
0.647142
0.647142
0.647143
0.647143
0.647143
0.647143
0.647144
0.647144
0.647144
0.647144
0.647144
0.647145
0.647145
0.647145
0.647145
0.647146
0.647146
0.647146
0.647146
0.647146
0.647147
0.647147
0.647147
0.647147
0.647148
0.647148
0.647148
0.647149
0.647149
0.647149
0.647149
0.64715
0.64715
0.64715
0.64715
0.647151
0.647151
0.647151
0.647151
0.647152
0.647152
0.647153
0.647153
0.647153
0.647153
0.647154
0.647154
0.647154
0.647154
0.647155
0.647155
0.647156
0.647156
0.647156
0.647156
0.647157
0.647157
0.647158
0.647158
0.647158
0.647159
0.647159
0.647159
0.647159
0.64716
0.64716
0.647161
0.647161
0.647161
0.647162
0.647162
0.647163
0.647163
0.647163
0.647163
0.647164
0.647164
0.647165
0.647165
0.647165
0.647166
0.647166
0.647167
0.647167
0.647167
0.647168
0.647168
0.647169
0.647169
0.647169
0.64717
0.64717
0.647171
0.647171
0.647171
0.647172
0.647172
0.647173
0.647173
0.647174
0.647174
0.647175
0.647175
0.647175
0.647176
0.647176
0.647177
0.647177
0.647177
0.647178
0.647179
0.647179
0.64718
0.64718
0.64718
0.647181
0.647181
0.647182
0.647182
0.647183
0.647183
0.647184
0.647184
0.647184
0.647185
0.647186
0.647186
0.647187
0.647187
0.647187
0.647188
0.647189
0.647189
0.647189
0.64719
0.647191
0.647191
0.647192
0.647192
0.647193
0.647193
0.647194
0.647195
0.647195
0.647195
0.647196
0.647197
0.647197
0.647197
0.647198
0.647199
0.647199
0.6472
0.6472
0.647201
0.647201
0.647202
0.647203
0.647203
0.647204
0.647204
0.647205
0.647206
0.647206
0.647206
0.647207
0.647208
0.647209
0.647209
0.647209
0.64721
0.647211
0.647212
0.647212
0.647212
0.647213
0.647214
0.647215
0.647215
0.647215
0.647216
0.647217
0.647218
0.647218
0.647219
0.647219
0.64722
0.647221
0.647221
0.647222
0.647223
0.647223
0.647224
0.647224
0.647225
0.647226
0.647227
0.647227
0.647227
0.647228
0.647229
0.64723
0.647231
0.647231
0.647232
0.647232
0.647233
0.647234
0.647234
0.647235
0.647236
0.647237
0.647238
0.647238
0.647238
0.647239
0.64724
0.647241
0.647241
0.647242
0.647243
0.647244
0.647245
0.647245
0.647246
0.647246
0.647247
0.647248
0.647248
0.647249
0.64725
0.647251
0.647252
0.647252
0.647253
0.647254
0.647255
0.647256
0.647256
0.647257
0.647258
0.647259
0.647259
0.647259
0.64726
0.647261
0.647262
0.647263
0.647263
0.647264
0.647265
0.647266
0.647267
0.647267
0.647268
0.647269
0.64727
0.647271
0.647271
0.647272
0.647273
0.647274
0.647275
0.647275
0.647276
0.647277
0.647278
0.647279
0.647279
0.64728
0.647281
0.647282
0.647283
0.647283
0.647285
0.647286
0.647287
0.647288
0.647288
0.647289
0.64729
0.647291
0.647292
0.647292
0.647293
0.647294
0.647295
0.647296
0.647296
0.647297
0.647298
0.6473
0.647301
0.647301
0.647302
0.647303
0.647304
0.647305
0.647305
0.647306
0.647307
0.647308
0.64731
0.64731
0.647311
0.647312
0.647313
0.647314
0.647314
0.647315
0.647316
0.647318
0.647319
0.647319
0.64732
0.647321
0.647322
0.647323
0.647323
0.647325
0.647326
0.647327
0.647328
0.647328
0.647329
0.64733
0.647332
0.647333
0.647333
0.647334
0.647335
0.647337
0.647338
0.647338
0.647339
0.64734
0.647341
0.647343
0.647343
0.647344
0.647345
0.647346
0.647348
0.647348
0.647349
0.64735
0.647351
0.647353
0.647353
0.647354
0.647355
0.647356
0.647358
0.647358
0.647359
0.64736
0.647362
0.647363
0.647363
0.647364
0.647365
0.647367
0.647368
0.647368
0.647369
0.647371
0.647372
0.647373
0.647373
0.647375
0.647376
0.647377
0.647379
0.647379
0.64738
0.647381
0.647383
0.647384
0.647384
0.647385
0.647387
0.647388
0.647389
0.647389
0.647391
0.647392
0.647393
0.647395
0.647395
0.647396
0.647398
0.647399
0.6474
0.6474
0.647402
0.647403
0.647405
0.647406
0.647406
0.647407
0.647409
0.64741
0.647412
0.647412
0.647413
0.647414
0.647416
0.647417
0.647417
0.647419
0.64742
0.647422
0.647423
0.647423
0.647425
0.647426
0.647428
0.647429
0.647429
0.64743
0.647432
0.647433
0.647435
0.647435
0.647436
0.647438
0.647439
0.647441
0.647441
0.647442
0.647444
0.647445
0.647447
0.647447
0.647448
0.64745
0.647451
0.647453
0.647453
0.647454
0.647456
0.647457
0.647459
0.647459
0.647461
0.647462
0.647464
0.647465
0.647465
0.647467
0.647468
0.64747
0.647471
0.647471
0.647473
0.647475
0.647476
0.647478
0.647478
0.647479
0.647481
0.647483
0.647484
0.647484
0.647486
0.647487
0.647489
0.647491
0.647491
0.647492
0.647494
0.647495
0.647497
0.647497
0.647499
0.6475
0.647502
0.647504
0.647504
0.647505
0.647507
0.647508
0.64751
0.64751
0.647512
0.647513
0.647515
0.647517
0.647517
0.647518
0.64752
0.647522
0.647524
0.647524
0.647525
0.647527
0.647529
0.64753
0.64753
0.647532
0.647534
0.647535
0.647537
0.647537
0.647539
0.647541
0.647542
0.647544
0.647544
0.647546
0.647547
0.647549
0.647551
0.647551
0.647553
0.647554
0.647556
0.647558
0.647558
0.64756
0.647561
0.647563
0.647565
0.647565
0.647567
0.647569
0.64757
0.647572
0.647572
0.647574
0.647576
0.647578
0.647579
0.647579
0.647581
0.647583
0.647585
0.647587
0.647587
0.647588
0.64759
0.647592
0.647594
0.647594
0.647596
0.647598
0.647599
0.647601
0.647601
0.647603
0.647605
0.647607
0.647609
0.647609
0.647611
0.647612
0.647614
0.647616
0.647616
0.647618
0.64762
0.647622
0.647624
0.647624
0.647626
0.647627
0.647629
0.647631
0.647631
0.647633
0.647635
0.647637
0.647639
0.647639
0.647641
0.647643
0.647645
0.647647
0.647647
0.647649
0.64765
0.647652
0.647654
0.647654
0.647656
0.647658
0.64766
0.647662
0.647662
0.647664
0.647666
0.647668
0.64767
0.64767
0.647672
0.647674
0.647676
0.647678
0.647678
0.64768
0.647682
0.647684
0.647686
0.647686
0.647688
0.64769
0.647692
0.647694
0.647694
0.647696
0.647698
0.6477
0.647702
0.647702
0.647704
0.647706
0.647708
0.64771
0.64771
0.647712
0.647715
0.647717
0.647719
0.647719
0.647721
0.647723
0.647725
0.647727
0.647727
0.647729
0.647731
0.647733
0.647735
0.647735
0.647737
0.64774
0.647742
0.647744
0.647744
0.647746
0.647748
0.64775
0.647752
0.647752
0.647754
0.647756
0.647759
0.647761
0.647761
0.647763
0.647765
0.647767
0.647769
0.647769
0.647771
0.647774
0.647776
0.647778
0.647778
0.64778
0.647782
0.647784
0.647787
0.647787
0.647789
0.647791
0.647793
0.647795
0.647795
0.647798
0.6478
0.647802
0.647804
0.647804
0.647807
0.647809
0.647811
0.647813
0.647813
0.647815
0.647818
0.64782
0.647822
0.647822
0.647824
0.647827
0.647829
0.647831
0.647831
0.647833
0.647836
0.647838
0.64784
0.64784
0.647843
0.647845
0.647847
0.647849
0.647849
0.647852
0.647854
0.647856
0.647859
0.647859
0.647861
0.647863
0.647865
0.647868
0.647868
0.64787
0.647872
0.647875
0.647877
0.647877
0.647879
0.647882
0.647884
0.647886
0.647886
0.647889
0.647891
0.647894
0.647896
0.647896
0.647898
0.647901
0.647903
0.647905
0.647905
0.647908
0.64791
0.647912
0.647915
0.647915
0.647917
0.64792
0.647922
0.647924
0.647924
0.647927
0.647929
0.647932
0.647934
0.647934
0.647937
0.647939
0.647941
0.647944
0.647944
0.647946
0.647949
0.647951
0.647954
0.647954
0.647956
0.647959
0.647961
0.647964
0.647964
0.647966
0.647968
0.647971
0.647973
0.647973
0.647976
0.647978
0.647981
0.647983
0.647983
0.647986
0.647988
0.647991
0.647993
0.647993
0.647996
0.647998
0.648001
0.648003
0.648003
0.648006
0.648009
0.648011
0.648014
0.648014
0.648016
0.648019
0.648021
0.648024
0.648024
0.648026
0.648029
0.648031
0.648034
0.648034
0.648037
0.648039
0.648042
0.648044
0.648044
0.648047
0.64805
0.648052
0.648055
0.648055
0.648057
0.64806
0.648063
0.648065
0.648065
0.648068
0.64807
0.648073
0.648076
0.648076
0.648078
0.648081
0.648084
0.648086
0.648086
0.648089
0.648092
0.648094
0.648097
0.648097
0.6481
0.648102
0.648105
0.648108
0.648108
0.64811
0.648113
0.648116
0.648118
0.648118
0.648121
0.648124
0.648126
0.648129
0.648129
0.648132
0.648134
0.648137
0.64814
0.64814
0.648143
0.648145
0.648148
0.648151
0.648151
0.648154
0.648156
0.648159
0.648162
0.648162
0.648165
0.648167
0.64817
0.648173
0.648173
0.648176
0.648178
0.648181
0.648184
0.648184
0.648187
0.648189
0.648192
0.648195
0.648195
0.648198
0.648201
0.648203
0.648206
0.648206
0.648209
0.648212
0.648215
0.648218
0.648218
0.64822
0.648223
0.648226
0.648229
0.648229
0.648232
0.648235
0.648237
0.64824
0.64824
0.648243
0.648246
0.648249
0.648252
0.648252
0.648255
0.648257
0.64826
0.648263
0.648263
0.648266
0.648269
0.648272
0.648275
0.648275
0.648278
0.648281
0.648284
0.648286
0.648286
0.648289
0.648292
0.648295
0.648298
0.648298
0.648301
0.648304
0.648307
0.64831
0.64831
0.648313
0.648316
0.648319
0.648322
0.648322
0.648325
0.648328
0.648331
0.648334
0.648334
0.648337
0.64834
0.648343
0.648346
0.648346
0.648348
0.648351
0.648354
0.648357
0.648357
0.648361
0.648364
0.648367
0.64837
0.64837
0.648373
0.648376
0.648379
0.648382
0.648382
0.648385
0.648388
0.648391
0.648394
0.648394
0.648397
0.6484
0.648403
0.648406
0.648406
0.648409
0.648412
0.648415
0.648418
0.648418
0.648421
0.648425
0.648428
0.648431
0.648431
0.648434
0.648437
0.64844
0.648443
0.648443
0.648446
0.648449
0.648452
0.648456
0.648456
0.648459
0.648462
0.648465
0.648468
0.648468
0.648471
0.648474
0.648478
0.648481
0.648481
0.648484
0.648487
0.64849
0.648493
0.648493
0.648497
0.6485
0.648503
0.648506
0.648506
0.648509
0.648513
0.648516
0.648519
0.648519
0.648522
0.648525
0.648529
0.648532
0.648532
0.648535
0.648538
0.648541
0.648545
0.648545
0.648548
0.648551
0.648554
0.648558
0.648558
0.648561
0.648564
0.648567
0.648571
0.648571
0.648574
0.648577
0.64858
0.648584
0.648584
0.648587
0.64859
0.648594
0.648597
0.648597
0.6486
0.648603
0.648607
0.64861
0.64861
0.648613
0.648617
0.64862
0.648623
0.648623
0.648627
0.64863
0.648633
0.648637
0.648637
0.64864
0.648643
0.648647
0.64865
0.64865
0.648653
0.648657
0.64866
0.648663
0.648663
0.648667
0.64867
0.648674
0.648677
0.648677
0.64868
0.648684
0.648687
0.64869
0.64869
0.648694
0.648697
0.648701
0.648704
0.648704
0.648708
0.648711
0.648714
0.648718
0.648718
0.648721
0.648725
0.648728
0.648732
0.648732
0.648735
0.648738
0.648742
0.648745
0.648745
0.648749
0.648752
0.648756
0.648759
0.648759
0.648763
0.648766
0.64877
0.648773
0.648773
0.648777
0.64878
0.648784
0.648787
0.648787
0.648791
0.648794
0.648798
0.648801
0.648801
0.648805
0.648808
0.648812
0.648815
0.648815
0.648819
0.648822
0.648826
0.64883
0.64883
0.648833
0.648837
0.64884
0.648844
0.648844
0.648847
0.648851
0.648855
0.648858
0.648858
0.648862
0.648865
0.648869
0.648872
0.648872
0.648876
0.64888
0.648883
0.648887
0.648887
0.64889
0.648894
0.648898
0.648901
0.648901
0.648905
0.648909
0.648912
0.648916
0.648916
0.64892
0.648923
0.648927
0.64893
0.64893
0.648934
0.648938
0.648941
0.648945
0.648945
0.648949
0.648952
0.648956
0.64896
0.64896
0.648964
0.648967
0.648971
0.648975
0.648975
0.648978
0.648982
0.648986
0.64899
0.64899
0.648993
0.648997
0.649001
0.649004
0.649004
0.649008
0.649012
0.649016
0.649019
0.649019
0.649023
0.649027
0.649031
0.649034
0.649034
0.649038
0.649042
0.649046
0.64905
0.64905
0.649053
0.649057
0.649061
0.649065
0.649065
0.649068
0.649072
0.649076
0.64908
0.64908
0.649084
0.649088
0.649091
0.649095
0.649095
0.649099
0.649103
0.649107
0.649111
0.649111
0.649114
0.649118
0.649122
0.649126
0.649126
0.64913
0.649134
0.649138
0.649141
0.649141
0.649145
0.649149
0.649153
0.649157
0.649157
0.649161
0.649165
0.649169
0.649173
0.649173
0.649176
0.64918
0.649184
0.649188
0.649188
0.649192
0.649196
0.6492
0.649204
0.649204
0.649208
0.649212
0.649216
0.64922
0.64922
0.649224
0.649228
0.649232
0.649235
0.649235
0.649239
0.649243
0.649247
0.649251
0.649251
0.649255
0.649259
0.649263
0.649267
0.649267
0.649271
0.649275
0.649279
0.649283
0.649283
0.649287
0.649291
0.649295
0.649299
0.649299
0.649304
0.649308
0.649312
0.649316
0.649316
0.64932
0.649324
0.649328
0.649332
0.649332
0.649336
0.64934
0.649344
0.649348
0.649348
0.649352
0.649356
0.64936
0.649364
0.649364
0.649369
0.649373
0.649377
0.649381
0.649381
0.649385
0.649389
0.649393
0.649397
0.649397
0.649401
0.649406
0.64941
0.649414
0.649414
0.649418
0.649422
0.649426
0.64943
0.64943
0.649435
0.649439
0.649443
0.649447
0.649447
0.649451
0.649455
0.64946
0.649464
0.649464
0.649468
0.649472
0.649476
0.64948
0.64948
0.649485
0.649489
0.649493
0.649497
0.649497
0.649502
0.649506
0.64951
0.649514
0.649514
0.649518
0.649523
0.649527
0.649531
0.649531
0.649535
0.64954
0.649544
0.649548
0.649548
0.649552
0.649557
0.649561
0.649565
0.649565
0.64957
0.649574
0.649578
0.649582
0.649582
0.649587
0.649591
0.649595
0.6496
0.6496
0.649604
0.649608
0.649613
0.649617
0.649617
0.649621
0.649626
0.64963
0.649634
0.649634
0.649639
0.649643
0.649647
0.649652
0.649652
0.649656
0.64966
0.649665
0.649669
0.649669
0.649673
0.649678
0.649682
0.649687
0.649687
0.649691
0.649695
0.6497
0.649704
0.649704
0.649709
0.649713
0.649717
0.649722
0.649722
0.649726
0.649731
0.649735
0.64974
0.64974
0.649744
0.649748
0.649753
0.649757
0.649757
0.649762
0.649766
0.649771
0.649775
0.649775
0.64978
0.649784
0.649789
0.649793
0.649793
0.649798
0.649802
0.649806
0.649811
0.649811
0.649815
0.64982
0.649824
0.649829
0.649829
0.649834
0.649838
0.649843
0.649847
0.649847
0.649852
0.649856
0.649861
0.649865
0.649865
0.64987
0.649874
0.649879
0.649883
0.649883
0.649888
0.649893
0.649897
0.649902
0.649902
0.649906
0.649911
0.649915
0.64992
0.64992
0.649925
0.649929
0.649934
0.649938
0.649938
0.649943
0.649948
0.649952
0.649957
0.649957
0.649962
0.649966
0.649971
0.649975
0.649975
0.64998
0.649985
0.649989
0.649994
0.649994
0.649999
0.650003
0.650008
0.650013
0.650013
0.650017
0.650022
0.650027
0.650031
0.650031
0.650036
0.650041
0.650045
0.65005
0.65005
0.650055
0.65006
0.650064
0.650069
0.650069
0.650074
0.650078
0.650083
0.650088
0.650088
0.650093
0.650097
0.650102
0.650107
0.650107
0.650112
0.650116
0.650121
0.650126
0.650126
0.650131
0.650135
0.65014
0.650145
0.650145
0.65015
0.650155
0.650159
0.650164
0.650164
0.650169
0.650174
0.650179
0.650183
0.650183
0.650188
0.650193
0.650198
0.650203
0.650203
0.650208
0.650212
0.650217
0.650222
0.650222
0.650227
0.650232
0.650237
0.650241
0.650241
0.650246
0.650251
0.650256
0.650261
0.650261
0.650266
0.650271
0.650276
0.65028
0.65028
0.650285
0.65029
0.650295
0.6503
0.6503
0.650305
0.65031
0.650315
0.65032
0.65032
0.650325
0.65033
0.650335
0.65034
0.65034
0.650344
0.650349
0.650354
0.650359
0.650359
0.650364
0.650369
0.650374
0.650379
0.650379
0.650384
0.650389
0.650394
0.650399
0.650399
0.650404
0.650409
0.650414
0.650419
0.650419
0.650424
0.650429
0.650434
0.650439
0.650439
0.650444
0.650449
0.650454
0.650459
0.650459
0.650464
0.650469
0.650474
0.650479
0.650479
0.650484
0.65049
0.650495
0.6505
0.6505
0.650505
0.65051
0.650515
0.65052
0.65052
0.650525
0.65053
0.650535
0.65054
0.65054
0.650545
0.650551
0.650556
0.650561
0.650561
0.650566
0.650571
0.650576
0.650581
0.650581
0.650586
0.650592
0.650597
0.650602
0.650602
0.650607
0.650612
0.650617
0.650623
0.650623
0.650628
0.650633
0.650638
0.650643
0.650643
0.650648
0.650654
0.650659
0.650664
0.650664
0.650669
0.650674
0.65068
0.650685
0.650685
0.65069
0.650695
0.6507
0.650706
0.650706
0.650711
0.650716
0.650721
0.650727
0.650727
0.650732
0.650737
0.650742
0.650748
0.650748
0.650753
0.650758
0.650763
0.650769
0.650769
0.650774
0.650779
0.650785
0.65079
0.65079
0.650795
0.650801
0.650806
0.650811
0.650811
0.650816
0.650822
0.650827
0.650832
0.650832
0.650838
0.650843
0.650848
0.650854
0.650854
0.650859
0.650864
0.65087
0.650875
0.650875
0.650881
0.650886
0.650891
0.650897
0.650897
0.650902
0.650907
0.650913
0.650918
0.650918
0.650924
0.650929
0.650934
0.65094
0.65094
0.650945
0.650951
0.650956
0.650961
0.650961
0.650967
0.650972
0.650978
0.650983
0.650983
0.650989
0.650994
0.650999
0.651005
0.651005
0.65101
0.651016
0.651021
0.651027
0.651027
0.651032
0.651038
0.651043
0.651049
0.651049
0.651054
0.65106
0.651065
0.651071
0.651071
0.651076
0.651082
0.651087
0.651093
0.651093
0.651098
0.651104
0.651109
0.651115
0.651115
0.65112
0.651126
0.651132
0.651137
0.651137
0.651143
0.651148
0.651154
0.651159
0.651159
0.651165
0.651171
0.651176
0.651182
0.651182
0.651187
0.651193
0.651199
0.651204
0.651204
0.65121
0.651215
0.651221
0.651227
0.651227
0.651232
0.651238
0.651243
0.651249
0.651249
0.651255
0.65126
0.651266
0.651272
0.651272
0.651277
0.651283
0.651289
0.651294
0.651294
0.6513
0.651306
0.651311
0.651317
0.651317
0.651323
0.651328
0.651334
0.65134
0.65134
0.651346
0.651351
0.651357
0.651363
0.651363
0.651368
0.651374
0.65138
0.651386
0.651386
0.651391
0.651397
0.651403
0.651409
0.651409
0.651414
0.65142
0.651426
0.651432
0.651432
0.651437
0.651443
0.651449
0.651455
0.651455
0.651461
0.651466
0.651472
0.651478
0.651478
0.651484
0.65149
0.651495
0.651501
0.651501
0.651507
0.651513
0.651519
0.651524
0.651524
0.65153
0.651536
0.651542
0.651548
0.651548
0.651554
0.65156
0.651565
0.651571
0.651571
0.651577
0.651583
0.651589
0.651595
0.651595
0.651601
0.651607
0.651612
0.651618
0.651618
0.651624
0.65163
0.651636
0.651642
0.651642
0.651648
0.651654
0.65166
0.651666
0.651666
0.651672
0.651678
0.651684
0.651689
0.651689
0.651695
0.651701
0.651707
0.651713
0.651713
0.651719
0.651725
0.651731
0.651737
0.651737
0.651743
0.651749
0.651755
0.651761
0.651761
0.651767
0.651773
0.651779
0.651785
0.651785
0.651791
0.651797
0.651803
0.651809
0.651809
0.651815
0.651821
0.651827
0.651833
0.651833
0.65184
0.651846
0.651852
0.651858
0.651858
0.651864
0.65187
0.651876
0.651882
0.651882
0.651888
0.651894
0.6519
0.651906
0.651906
0.651913
0.651919
0.651925
0.651931
0.651931
0.651937
0.651943
0.651949
0.651955
0.651955
0.651962
0.651968
0.651974
0.65198
0.65198
0.651986
0.651992
0.651998
0.652005
0.652005
0.652011
0.652017
0.652023
0.652029
0.652029
0.652035
0.652042
0.652048
0.652054
0.652054
0.65206
0.652067
0.652073
0.652079
0.652079
0.652085
0.652091
0.652098
0.652104
0.652104
0.65211
0.652116
0.652123
0.652129
0.652129
0.652135
0.652141
0.652148
0.652154
0.652154
0.65216
0.652166
0.652173
0.652179
0.652179
0.652185
0.652192
0.652198
0.652204
0.652204
0.65221
0.652217
0.652223
0.652229
0.652229
0.652236
0.652242
0.652248
0.652255
0.652255
0.652261
0.652267
0.652274
0.65228
0.65228
0.652286
0.652293
0.652299
0.652306
0.652306
0.652312
0.652318
0.652325
0.652331
0.652331
0.652337
0.652344
0.65235
0.652357
0.652357
0.652363
0.652369
0.652376
0.652382
0.652382
0.652389
0.652395
0.652402
0.652408
0.652408
0.652414
0.652421
0.652427
0.652434
0.652434
0.65244
0.652447
0.652453
0.65246
0.65246
0.652466
0.652473
0.652479
0.652486
0.652486
0.652492
0.652499
0.652505
0.652512
0.652512
0.652518
0.652525
0.652531
0.652538
0.652538
0.652544
0.652551
0.652557
0.652564
0.652564
0.65257
0.652577
0.652583
0.65259
0.65259
0.652596
0.652603
0.65261
0.652616
0.652616
0.652623
0.652629
0.652636
0.652643
0.652643
0.652649
0.652656
0.652662
0.652669
0.652669
0.652676
0.652682
0.652689
0.652695
0.652695
0.652702
0.652709
0.652715
0.652722
0.652722
0.652729
0.652735
0.652742
0.652749
0.652749
0.652755
0.652762
0.652769
0.652775
0.652775
0.652782
0.652789
0.652795
0.652802
0.652802
0.652809
0.652815
0.652822
0.652829
0.652829
0.652835
0.652842
0.652849
0.652856
0.652856
0.652862
0.652869
0.652876
0.652883
0.652883
0.652889
0.652896
0.652903
0.65291
0.65291
0.652916
0.652923
0.65293
0.652937
0.652937
0.652943
0.65295
0.652957
0.652964
0.652964
0.652971
0.652977
0.652984
0.652991
0.652991
0.652998
0.653005
0.653011
0.653018
0.653018
0.653025
0.653032
0.653039
0.653046
0.653046
0.653053
0.653059
0.653066
0.653073
0.653073
0.65308
0.653087
0.653094
0.653101
0.653101
0.653107
0.653114
0.653121
0.653128
0.653128
0.653135
0.653142
0.653149
0.653156
0.653156
0.653163
0.65317
0.653177
0.653183
0.653183
0.65319
0.653197
0.653204
0.653211
0.653211
0.653218
0.653225
0.653232
0.653239
0.653239
0.653246
0.653253
0.65326
0.653267
0.653267
0.653274
0.653281
0.653288
0.653295
0.653295
0.653302
0.653309
0.653316
0.653323
0.653323
0.65333
0.653337
0.653344
0.653351
0.653351
0.653358
0.653365
0.653372
0.653379
0.653379
0.653386
0.653393
0.653401
0.653408
0.653408
0.653415
0.653422
0.653429
0.653436
0.653436
0.653443
0.65345
0.653457
0.653464
0.653464
0.653471
0.653479
0.653486
0.653493
0.653493
0.6535
0.653507
0.653514
0.653521
0.653521
0.653528
0.653536
0.653543
0.65355
0.65355
0.653557
0.653564
0.653571
0.653579
0.653579
0.653586
0.653593
0.6536
0.653607
0.653607
0.653615
0.653622
0.653629
0.653636
0.653636
0.653643
0.653651
0.653658
0.653665
0.653665
0.653672
0.65368
0.653687
0.653694
0.653694
0.653701
0.653709
0.653716
0.653723
0.653723
0.65373
0.653738
0.653745
0.653752
0.653752
0.653759
0.653767
0.653774
0.653781
0.653781
0.653789
0.653796
0.653803
0.653811
0.653811
0.653818
0.653825
0.653833
0.65384
0.65384
0.653847
0.653855
0.653862
0.653869
0.653869
0.653877
0.653884
0.653891
0.653899
0.653899
0.653906
0.653913
0.653921
0.653928
0.653928
0.653936
0.653943
0.65395
0.653958
0.653958
0.653965
0.653973
0.65398
0.653987
0.653987
0.653995
0.654002
0.65401
0.654017
0.654017
0.654025
0.654032
0.654039
0.654047
0.654047
0.654054
0.654062
0.654069
0.654077
0.654077
0.654084
0.654092
0.654099
0.654107
0.654107
0.654114
0.654122
0.654129
0.654137
0.654137
0.654144
0.654152
0.654159
0.654167
0.654167
0.654174
0.654182
0.654189
0.654197
0.654197
0.654205
0.654212
0.65422
0.654227
0.654227
0.654235
0.654242
0.65425
0.654258
0.654258
0.654265
0.654273
0.65428
0.654288
0.654288
0.654296
0.654303
0.654311
0.654318
0.654318
0.654326
0.654334
0.654341
0.654349
0.654349
0.654356
0.654364
0.654372
0.654379
0.654379
0.654387
0.654395
0.654402
0.65441
0.65441
0.654418
0.654425
0.654433
0.654441
0.654441
0.654448
0.654456
0.654464
0.654472
0.654472
0.654479
0.654487
0.654495
0.654502
0.654502
0.65451
0.654518
0.654526
0.654533
0.654533
0.654541
0.654549
0.654557
0.654564
0.654564
0.654572
0.65458
0.654588
0.654595
0.654595
0.654603
0.654611
0.654619
0.654627
0.654627
0.654634
0.654642
0.65465
0.654658
0.654658
0.654666
0.654673
0.654681
0.654689
0.654689
0.654697
0.654705
0.654713
0.654721
0.654721
0.654728
0.654736
0.654744
0.654752
0.654752
0.65476
0.654768
0.654776
0.654783
0.654783
0.654791
0.654799
0.654807
0.654815
0.654815
0.654823
0.654831
0.654839
0.654847
0.654847
0.654855
0.654863
0.654871
0.654878
0.654878
0.654886
0.654894
0.654902
0.65491
0.65491
0.654918
0.654926
0.654934
0.654942
0.654942
0.65495
0.654958
0.654966
0.654974
0.654974
0.654982
0.65499
0.654998
0.655006
0.655006
0.655014
0.655022
0.65503
0.655038
0.655038
0.655046
0.655054
0.655062
0.65507
0.65507
0.655078
0.655086
0.655094
0.655103
0.655103
0.655111
0.655119
0.655127
0.655135
0.655135
0.655143
0.655151
0.655159
0.655167
0.655167
0.655175
0.655183
0.655192
0.6552
0.6552
0.655208
0.655216
0.655224
0.655232
0.655232
0.65524
0.655248
0.655257
0.655265
0.655265
0.655273
0.655281
0.655289
0.655297
0.655297
0.655306
0.655314
0.655322
0.65533
0.65533
0.655338
0.655347
0.655355
0.655363
0.655363
0.655371
0.655379
0.655388
0.655396
0.655396
0.655404
0.655412
0.655421
0.655429
0.655429
0.655437
0.655445
0.655454
0.655462
0.655462
0.65547
0.655478
0.655487
0.655495
0.655495
0.655503
0.655512
0.65552
0.655528
0.655528
0.655536
0.655545
0.655553
0.655561
0.655561
0.65557
0.655578
0.655586
0.655595
0.655595
0.655603
0.655612
0.65562
0.655628
0.655628
0.655637
0.655645
0.655653
0.655662
0.655662
0.65567
0.655678
0.655687
0.655695
0.655695
0.655704
0.655712
0.65572
0.655729
0.655729
0.655737
0.655746
0.655754
0.655763
0.655763
0.655771
0.655779
0.655788
0.655796
0.655796
0.655805
0.655813
0.655822
0.65583
0.65583
0.655839
0.655847
0.655856
0.655864
0.655864
0.655873
0.655881
0.65589
0.655898
0.655898
0.655907
0.655915
0.655924
0.655932
0.655932
0.655941
0.655949
0.655958
0.655966
0.655966
0.655975
0.655983
0.655992
0.656
0.656
0.656009
0.656018
0.656026
0.656035
0.656035
0.656043
0.656052
0.656061
0.656069
0.656069
0.656078
0.656086
0.656095
0.656104
0.656104
0.656112
0.656121
0.656129
0.656138
0.656138
0.656147
0.656155
0.656164
0.656173
0.656173
0.656181
0.65619
0.656199
0.656207
0.656207
0.656216
0.656225
0.656233
0.656242
0.656242
0.656251
0.656259
0.656268
0.656277
0.656277
0.656286
0.656294
0.656303
0.656312
0.656312
0.65632
0.656329
0.656338
0.656347
0.656347
0.656355
0.656364
0.656373
0.656382
0.656382
0.656391
0.656399
0.656408
0.656417
0.656417
0.656426
0.656434
0.656443
0.656452
0.656452
0.656461
0.65647
0.656478
0.656487
0.656487
0.656496
0.656505
0.656514
0.656523
0.656523
0.656531
0.65654
0.656549
0.656558
0.656558
0.656567
0.656576
0.656585
0.656593
0.656593
0.656602
0.656611
0.65662
0.656629
0.656629
0.656638
0.656647
0.656656
0.656665
0.656665
0.656674
0.656683
0.656691
0.6567
0.6567
0.656709
0.656718
0.656727
0.656736
0.656736
0.656745
0.656754
0.656763
0.656772
0.656772
0.656781
0.65679
0.656799
0.656808
0.656808
0.656817
0.656826
0.656835
0.656844
0.656844
0.656853
0.656862
0.656871
0.65688
0.65688
0.656889
0.656898
0.656907
0.656916
0.656916
0.656925
0.656934
0.656943
0.656952
0.656952
0.656962
0.656971
0.65698
0.656989
0.656989
0.656998
0.657007
0.657016
0.657025
0.657025
0.657034
0.657043
0.657053
0.657062
0.657062
0.657071
0.65708
0.657089
0.657098
0.657098
0.657107
0.657116
0.657126
0.657135
0.657135
0.657144
0.657153
0.657162
0.657172
0.657172
0.657181
0.65719
0.657199
0.657208
0.657208
0.657217
0.657227
0.657236
0.657245
0.657245
0.657254
0.657264
0.657273
0.657282
0.657282
0.657291
0.657301
0.65731
0.657319
0.657319
0.657328
0.657338
0.657347
0.657356
0.657356
0.657365
0.657375
0.657384
0.657393
0.657393
0.657403
0.657412
0.657421
0.65743
0.65743
0.65744
0.657449
0.657458
0.657468
0.657468
0.657477
0.657486
0.657496
0.657505
0.657505
0.657515
0.657524
0.657533
0.657543
0.657543
0.657552
0.657561
0.657571
0.65758
0.65758
0.65759
0.657599
0.657608
0.657618
0.657618
0.657627
0.657637
0.657646
0.657655
0.657655
0.657665
0.657674
0.657684
0.657693
0.657693
0.657703
0.657712
0.657722
0.657731
0.657731
0.657741
0.65775
0.65776
0.657769
0.657769
0.657779
0.657788
0.657797
0.657807
0.657807
0.657817
0.657826
0.657836
0.657845
0.657845
0.657855
0.657864
0.657874
0.657883
0.657883
0.657893
0.657902
0.657912
0.657921
0.657921
0.657931
0.657941
0.65795
0.65796
0.65796
0.657969
0.657979
0.657989
0.657998
0.657998
0.658008
0.658017
0.658027
0.658037
0.658037
0.658046
0.658056
0.658066
0.658075
0.658075
0.658085
0.658094
0.658104
0.658114
0.658114
0.658123
0.658133
0.658143
0.658152
0.658152
0.658162
0.658172
0.658182
0.658191
0.658191
0.658201
0.658211
0.65822
0.65823
0.65823
0.65824
0.65825
0.658259
0.658269
0.658269
0.658279
0.658289
0.658298
0.658308
0.658308
0.658318
0.658328
0.658337
0.658347
0.658347
0.658357
0.658367
0.658376
0.658386
0.658386
0.658396
0.658406
0.658416
0.658426
0.658426
0.658435
0.658445
0.658455
0.658465
0.658465
0.658475
0.658485
0.658494
0.658504
0.658504
0.658514
0.658524
0.658534
0.658544
0.658544
0.658554
0.658564
0.658573
0.658583
0.658583
0.658593
0.658603
0.658613
0.658623
0.658623
0.658633
0.658643
0.658653
0.658663
0.658663
0.658673
0.658683
0.658692
0.658702
0.658702
0.658712
0.658722
0.658732
0.658742
0.658742
0.658752
0.658762
0.658772
0.658782
0.658782
0.658792
0.658802
0.658812
0.658822
0.658822
0.658832
0.658842
0.658852
0.658862
0.658862
0.658872
0.658882
0.658893
0.658903
0.658903
0.658913
0.658923
0.658933
0.658943
0.658943
0.658953
0.658963
0.658973
0.658983
0.658983
0.658993
0.659003
0.659014
0.659024
0.659024
0.659034
0.659044
0.659054
0.659064
0.659064
0.659074
0.659084
0.659095
0.659105
0.659105
0.659115
0.659125
0.659135
0.659145
0.659145
0.659156
0.659166
0.659176
0.659186
0.659186
0.659196
0.659207
0.659217
0.659227
0.659227
0.659237
0.659247
0.659258
0.659268
0.659268
0.659278
0.659288
0.659299
0.659309
0.659309
0.659319
0.659329
0.65934
0.65935
0.65935
0.65936
0.65937
0.659381
0.659391
0.659391
0.659401
0.659412
0.659422
0.659432
0.659432
0.659443
0.659453
0.659463
0.659474
0.659474
0.659484
0.659494
0.659505
0.659515
0.659515
0.659525
0.659536
0.659546
0.659556
0.659556
0.659567
0.659577
0.659588
0.659598
0.659598
0.659608
0.659619
0.659629
0.65964
0.65964
0.65965
0.65966
0.659671
0.659681
0.659681
0.659692
0.659702
0.659713
0.659723
0.659723
0.659734
0.659744
0.659754
0.659765
0.659765
0.659775
0.659786
0.659796
0.659807
0.659807
0.659817
0.659828
0.659838
0.659849
0.659849
0.659859
0.65987
0.65988
0.659891
0.659891
0.659902
0.659912
0.659923
0.659933
0.659933
0.659944
0.659954
0.659965
0.659975
0.659975
0.659986
0.659997
0.660007
0.660018
0.660018
0.660028
0.660039
0.66005
0.66006
0.66006
0.660071
0.660082
0.660092
0.660103
0.660103
0.660113
0.660124
0.660135
0.660145
0.660145
0.660156
0.660167
0.660177
0.660188
0.660188
0.660199
0.660209
0.66022
0.660231
0.660231
0.660242
0.660252
0.660263
0.660274
0.660274
0.660284
0.660295
0.660306
0.660317
0.660317
0.660327
0.660338
0.660349
0.66036
0.66036
0.66037
0.660381
0.660392
0.660403
0.660403
0.660413
0.660424
0.660435
0.660446
0.660446
0.660457
0.660467
0.660478
0.660489
0.660489
0.6605
0.660511
0.660522
0.660532
0.660532
0.660543
0.660554
0.660565
0.660576
0.660576
0.660587
0.660598
0.660608
0.660619
0.660619
0.66063
0.660641
0.660652
0.660663
0.660663
0.660674
0.660685
0.660696
0.660707
0.660707
0.660718
0.660728
0.660739
0.66075
0.66075
0.660761
0.660772
0.660783
0.660794
0.660794
0.660805
0.660816
0.660827
0.660838
0.660838
0.660849
0.66086
0.660871
0.660882
0.660882
0.660893
0.660904
0.660915
0.660926
0.660926
0.660937
0.660948
0.660959
0.66097
0.66097
0.660981
0.660992
0.661003
0.661014