<?xml version="1.0"?>
<VTKFile type="UnstructuredGrid" version="0.1" byte_order="LittleEndian">
<UnstructuredGrid>
<Piece NumberOfPoints="5000" NumberOfCells="4000">
<PointData Scalars="Reaction 0">
<DataArray type="Float32" Name="Reaction 0" format="ascii">
0.510938
0.510938
0.510938
0.510938
0.510938
0.510938
0.510938
0.510939
0.510939
0.510939
0.510939
0.510939
0.51094
0.51094
0.510941
0.510941
0.510941
0.510942
0.510942
0.510943
0.510943
0.510943
0.510944
0.510944
0.510945
0.510945
0.510946
0.510947
0.510947
0.510948
0.510948
0.510949
0.51095
0.510951
0.510952
0.510952
0.510953
0.510954
0.510955
0.510956
0.510956
0.510958
0.510959
0.51096
0.510961
0.510961
0.510963
0.510964
0.510965
0.510967
0.510967
0.510968
0.51097
0.510971
0.510973
0.510973
0.510974
0.510976
0.510978
0.510979
0.510979
0.510981
0.510983
0.510985
0.510987
0.510987
0.510988
0.51099
0.510992
0.510994
0.510994
0.510996
0.510998
0.511001
0.511003
0.511003
0.511005
0.511007
0.511009
0.511012
0.511012
0.511014
0.511016
0.511019
0.511021
0.511021
0.511024
0.511026
0.511029
0.511031
0.511031
0.511034
0.511036
0.511039
0.511042
0.511042
0.511045
0.511047
0.51105
0.511053
0.511053
0.511056
0.511059
0.511062
0.511065
0.511065
0.511068
0.511071
0.511074
0.511077
0.511077
0.51108
0.511084
0.511087
0.51109
0.51109
0.511093
0.511097
0.5111
0.511104
0.511104
0.511107
0.511111
0.511114
0.511118
0.511118
0.511121
0.511125
0.511129
0.511132
0.511132
0.511136
0.51114
0.511144
0.511148
0.511148
0.511152
0.511156
0.51116
0.511164
0.511164
0.511168
0.511172
0.511176
0.51118
0.51118
0.511184
0.511188
0.511193
0.511197
0.511197
0.511201
0.511206
0.51121
0.511214
0.511214
0.511219
0.511223
0.511228
0.511233
0.511233
0.511237
0.511242
0.511247
0.511251
0.511251
0.511256
0.511261
0.511266
0.511271
0.511271
0.511276
0.51128
0.511285
0.51129
0.51129
0.511296
0.511301
0.511306
0.511311
0.511311
0.511316
0.511321
0.511327
0.511332
0.511332
0.511337
0.511343
0.511348
0.511353
0.511353
0.511359
0.511365
0.51137
0.511376
0.511376
0.511381
0.511387
0.511393
0.511398
0.511398
0.511404
0.51141
0.511416
0.511422
0.511422
0.511428
0.511434
0.51144
0.511446
0.511446
0.511452
0.511458
0.511464
0.51147
0.51147
0.511476
0.511483
0.511489
0.511495
0.511495
0.511501
0.511508
0.511514
0.511521
0.511521
0.511527
0.511534
0.51154
0.511547
0.511547
0.511554
0.51156
0.511567
0.511574
0.511574
0.511581
0.511587
0.511594
0.511601
0.511601
0.511608
0.511615
0.511622
0.511629
0.511629
0.511636
0.511643
0.51165
0.511658
0.511658
0.511665
0.511672
0.511679
0.511687
0.511687
0.511694
0.511701
0.511709
0.511716
0.511716
0.511724
0.511731
0.511739
0.511747
0.511747
0.511754
0.511762
0.51177
0.511777
0.511777
0.511785
0.511793
0.511801
0.511809
0.511809
0.511817
0.511825
0.511833
0.511841
0.511841
0.511849
0.511857
0.511865
0.511873
0.511873
0.511882
0.51189
0.511898
0.511906
0.511906
0.511915
0.511923
0.511932
0.51194
0.51194
0.511949
0.511957
0.511966
0.511974
0.511974
0.511983
0.511992
0.512001
0.512009
0.512009
0.512018
0.512027
0.512036
0.512045
0.512045
0.512054
0.512063
0.512072
0.512081
0.512081
0.51209
0.512099
0.512108
0.512117
0.512117
0.512127
0.512136
0.512145
0.512155
0.512155
0.512164
0.512173
0.512183
0.512192
0.512192
0.512202
0.512211
0.512221
0.512231
0.512231
0.51224
0.51225
0.51226
0.51227
0.51227
0.512279
0.512289
0.512299
0.512309
0.512309
0.512319
0.512329
0.512339
0.512349
0.512349
0.512359
0.512369
0.51238
0.51239
0.51239
0.5124
0.51241
0.512421
0.512431
0.512431
0.512441
0.512452
0.512462
0.512473
0.512473
0.512483
0.512494
0.512505
0.512515
0.512515
0.512526
0.512537
0.512547
0.512558
0.512558
0.512569
0.51258
0.512591
0.512602
0.512602
0.512613
0.512624
0.512635
0.512646
0.512646
0.512657
0.512668
0.512679
0.512691
0.512691
0.512702
0.512713
0.512724
0.512736
0.512736
0.512747
0.512759
0.51277
0.512782
0.512782
0.512793
0.512805
0.512817
0.512828
0.512828
0.51284
0.512852
0.512863
0.512875
0.512875
0.512887
0.512899
0.512911
0.512923
0.512923
0.512935
0.512947
0.512959
0.512971
0.512971
0.512983
0.512995
0.513008
0.51302
0.51302
0.513032
0.513044
0.513057
0.513069
0.513069
0.513082
0.513094
0.513107
0.513119
0.513119
0.513132
0.513144
0.513157
0.51317
0.51317
0.513182
0.513195
0.513208
0.513221
0.513221
0.513234
0.513247
0.513259
0.513272
0.513272
0.513285
0.513298
0.513312
0.513325
0.513325
0.513338
0.513351
0.513364
0.513378
0.513378
0.513391
0.513404
0.513418
0.513431
0.513431
0.513444
0.513458
0.513471
0.513485
0.513485
0.513499
0.513512
0.513526
0.51354
0.51354
0.513553
0.513567
0.513581
0.513595
0.513595
0.513609
0.513623
0.513637
0.513651
0.513651
0.513665
0.513679
0.513693
0.513707
0.513707
0.513721
0.513735
0.51375
0.513764
0.513764
0.513778
0.513792
0.513807
0.513821
0.513821
0.513836
0.51385
0.513865
0.513879
0.513879
0.513894
0.513909
0.513923
0.513938
0.513938
0.513953
0.513968
0.513982
0.513997
0.513997
0.514012
0.514027
0.514042
0.514057
0.514057
0.514072
0.514087
0.514102
0.514118
0.514118
0.514133
0.514148
0.514163
0.514179
0.514179
0.514194
0.514209
0.514225
0.51424
0.51424
0.514256
0.514271
0.514287
0.514302
0.514302
0.514318
0.514334
0.514349
0.514365
0.514365
0.514381
0.514397
0.514413
0.514429
0.514429
0.514444
0.51446
0.514476
0.514492
0.514492
0.514509
0.514525
0.514541
0.514557
0.514557
0.514573
0.514589
0.514606
0.514622
0.514622
0.514638
0.514655
0.514671
0.514688
0.514688
0.514704
0.514721
0.514737
0.514754
0.514754
0.514771
0.514787
0.514804
0.514821
0.514821
0.514838
0.514855
0.514872
0.514888
0.514888
0.514905
0.514922
0.514939
0.514956
0.514956
0.514974
0.514991
0.515008
0.515025
0.515025
0.515042
0.51506
0.515077
0.515094
0.515094
0.515112
0.515129
0.515147
0.515164
0.515164
0.515182
0.515199
0.515217
0.515234
0.515234
0.515252
0.51527
0.515288
0.515305
0.515305
0.515323
0.515341
0.515359
0.515377
0.515377
0.515395
0.515413
0.515431
0.515449
0.515449
0.515467
0.515485
0.515504
0.515522
0.515522
0.51554
0.515559
0.515577
0.515595
0.515595
0.515614
0.515632
0.515651
0.515669
0.515669
0.515688
0.515706
0.515725
0.515744
0.515744
0.515762
0.515781
0.5158
0.515819
0.515819
0.515838
0.515857
0.515875
0.515894
0.515894
0.515913
0.515933
0.515952
0.515971
0.515971
0.51599
0.516009
0.516028
0.516048
0.516048
0.516067
0.516086
0.516106
0.516125
0.516125
0.516145
0.516164
0.516184
0.516203
0.516203
0.516223
0.516242
0.516262
0.516282
0.516282
0.516302
0.516321
0.516341
0.516361
0.516361
0.516381
0.516401
0.516421
0.516441
0.516441
0.516461
0.516481
0.516501
0.516521
0.516521
0.516541
0.516562
0.516582
0.516602
0.516602
0.516623
0.516643
0.516663
0.516684
0.516684
0.516704
0.516725
0.516745
0.516766
0.516766
0.516787
0.516807
0.516828
0.516849
0.516849
0.51687
0.51689
0.516911
0.516932
0.516932
0.516953
0.516974
0.516995
0.517016
0.517016
0.517037
0.517058
0.517079
0.517101
0.517101
0.517122
0.517143
0.517164
0.517186
0.517186
0.517207
0.517229
0.51725
0.517272
0.517272
0.517293
0.517315
0.517336
0.517358
0.517358
0.51738
0.517401
0.517423
0.517445
0.517445
0.517467
0.517488
0.51751
0.517532
0.517532
0.517554
0.517576
0.517598
0.51762
0.51762
0.517643
0.517665
0.517687
0.517709
0.517709
0.517731
0.517754
0.517776
0.517798
0.517798
0.517821
0.517843
0.517866
0.517888
0.517888
0.517911
0.517933
0.517956
0.517979
0.517979
0.518002
0.518024
0.518047
0.51807
0.51807
0.518093
0.518116
0.518139
0.518162
0.518162
0.518185
0.518208
0.518231
0.518254
0.518254
0.518277
0.5183
0.518323
0.518347
0.518347
0.51837
0.518393
0.518417
0.51844
0.51844
0.518464
0.518487
0.518511
0.518534
0.518534
0.518558
0.518582
0.518605
0.518629
0.518629
0.518653
0.518677
0.5187
0.518724
0.518724
0.518748
0.518772
0.518796
0.51882
0.51882
0.518844
0.518868
0.518892
0.518917
0.518917
0.518941
0.518965
0.518989
0.519014
0.519014
0.519038
0.519062
0.519087
0.519111
0.519111
0.519136
0.51916
0.519185
0.51921
0.51921
0.519234
0.519259
0.519284
0.519308
0.519308
0.519333
0.519358
0.519383
0.519408
0.519408
0.519433
0.519458
0.519483
0.519508
0.519508
0.519533
0.519558
0.519583
0.519609
0.519609
0.519634
0.519659
0.519684
0.51971
0.51971
0.519735
0.519761
0.519786
0.519812
0.519812
0.519837
0.519863
0.519888
0.519914
0.519914
0.51994
0.519966
0.519991
0.520017
0.520017
0.520043
0.520069
0.520095
0.520121
0.520121
0.520147
0.520173
0.520199
0.520225
0.520225
0.520251
0.520278
0.520304
0.52033
0.52033
0.520356
0.520383
0.520409
0.520435
0.520435
0.520462
0.520488
0.520515
0.520542
0.520542
0.520568
0.520595
0.520622
0.520648
0.520648
0.520675
0.520702
0.520729
0.520756
0.520756
0.520782
0.520809
0.520836
0.520863
0.520863
0.52089
0.520918
0.520945
0.520972
0.520972
0.520999
0.521026
0.521054
0.521081
0.521081
0.521108
0.521136
0.521163
0.521191
0.521191
0.521218
0.521246
0.521273
0.521301
0.521301
0.521329
0.521356
0.521384
0.521412
0.521412
0.52144
0.521468
0.521495
0.521523
0.521523
0.521551
0.521579
0.521607
0.521636
0.521636
0.521664
0.521692
0.52172
0.521748
0.521748
0.521777
0.521805
0.521833
0.521862
0.521862
0.52189
0.521918
0.521947
0.521976
0.521976
0.522004
0.522033
0.522061
0.52209
0.52209
0.522119
0.522148
0.522176
0.522205
0.522205
0.522234
0.522263
0.522292
0.522321
0.522321
0.52235
0.522379
0.522408
0.522437
0.522437
0.522467
0.522496
0.522525
0.522554
0.522554
0.522584
0.522613
0.522642
0.522672
0.522672
0.522701
0.522731
0.522761
0.52279
0.52279
0.52282
0.522849
0.522879
0.522909
0.522909
0.522939
0.522969
0.522998
0.523028
0.523028
0.523058
0.523088
0.523118
0.523148
0.523148
0.523179
0.523209
0.523239
0.523269
0.523269
0.523299
0.52333
0.52336
0.52339
0.52339
0.523421
0.523451
0.523482
0.523512
0.523512
0.523543
0.523573
0.523604
0.523635
0.523635
0.523665
0.523696
0.523727
0.523758
0.523758
0.523789
0.52382
0.52385
0.523881
0.523881
0.523912
0.523944
0.523975
0.524006
0.524006
0.524037
0.524068
0.524099
0.524131
0.524131
0.524162
0.524193
0.524225
0.524256
0.524256
0.524288
0.524319
0.524351
0.524382
0.524382
0.524414
0.524446
0.524477
0.524509
0.524509
0.524541
0.524573
0.524605
0.524637
0.524637
0.524669
0.5247
0.524733
0.524765
0.524765
0.524797
0.524829
0.524861
0.524893
0.524893
0.524925
0.524958
0.52499
0.525022
0.525022
0.525055
0.525087
0.52512
0.525152
0.525152
0.525185
0.525217
0.52525
0.525283
0.525283
0.525315
0.525348
0.525381
0.525414
0.525414
0.525447
0.52548
0.525513
0.525546
0.525546
0.525579
0.525612
0.525645
0.525678
0.525678
0.525711
0.525744
0.525778
0.525811
0.525811
0.525844
0.525878
0.525911
0.525944
0.525944
0.525978
0.526011
0.526045
0.526079
0.526079
0.526112
0.526146
0.52618
0.526213
0.526213
0.526247
0.526281
0.526315
0.526349
0.526349
0.526383
0.526417
0.526451
0.526485
0.526485
0.526519
0.526553
0.526587
0.526622
0.526622
0.526656
0.52669
0.526724
0.526759
0.526759
0.526793
0.526828
0.526862
0.526897
0.526897
0.526931
0.526966
0.527001
0.527035
0.527035
0.52707
0.527105
0.52714
0.527174
0.527174
0.527209
0.527244
0.527279
0.527314
0.527314
0.527349
0.527384
0.527419
0.527455
0.527455
0.52749
0.527525
0.52756
0.527596
0.527596
0.527631
0.527666
0.527702
0.527737
0.527737
0.527773
0.527808
0.527844
0.52788
0.52788
0.527915
0.527951
0.527987
0.528022
0.528022
0.528058
0.528094
0.52813
0.528166
0.528166
0.528202
0.528238
0.528274
0.52831
0.52831
0.528346
0.528382
0.528419
0.528455
0.528455
0.528491
0.528528
0.528564
0.5286
0.5286
0.528637
0.528673
0.52871
0.528746
0.528746
0.528783
0.52882
0.528856
0.528893
0.528893
0.52893
0.528967
0.529003
0.52904
0.52904
0.529077
0.529114
0.529151
0.529188
0.529188
0.529225
0.529262
0.5293
0.529337
0.529337
0.529374
0.529411
0.529449
0.529486
0.529486
0.529523
0.529561
0.529598
0.529636
0.529636
0.529673
0.529711
0.529749
0.529786
0.529786
0.529824
0.529862
0.5299
0.529937
0.529937
0.529975
0.530013
0.530051
0.530089
0.530089
0.530127
0.530165
0.530203
0.530241
0.530241
0.53028
0.530318
0.530356
0.530394
0.530394
0.530433
0.530471
0.53051
0.530548
0.530548
0.530587
0.530625
0.530664
0.530702
0.530702
0.530741
0.53078
0.530818
0.530857
0.530857
0.530896
0.530935
0.530974
0.531013
0.531013
0.531052
0.531091
0.53113
0.531169
0.531169
0.531208
0.531247
0.531286
0.531326
0.531326
0.531365
0.531404
0.531444
0.531483
0.531483
0.531523
0.531562
0.531602
0.531641
0.531641
0.531681
0.53172
0.53176
0.5318
0.5318
0.53184
0.531879
0.531919
0.531959
0.531959
0.531999
0.532039
0.532079
0.532119
0.532119
0.532159
0.532199
0.53224
0.53228
0.53228
0.53232
0.53236
0.532401
0.532441
0.532441
0.532481
0.532522
0.532562
0.532603
0.532603
0.532643
0.532684
0.532725
0.532765
0.532765
0.532806
0.532847
0.532888
0.532929
0.532929
0.53297
0.53301
0.533051
0.533092
0.533092
0.533133
0.533175
0.533216
0.533257
0.533257
0.533298
0.533339
0.533381
0.533422
0.533422
0.533463
0.533505
0.533546
0.533588
0.533588
0.533629
0.533671
0.533712
0.533754
0.533754
0.533796
0.533838
0.533879
0.533921
0.533921
0.533963
0.534005
0.534047
0.534089
0.534089
0.534131
0.534173
0.534215
0.534257
0.534257
0.534299
0.534342
0.534384
0.534426
0.534426
0.534468
0.534511
0.534553
0.534596
0.534596
0.534638
0.534681
0.534723
0.534766
0.534766
0.534809
0.534851
0.534894
0.534937
0.534937
0.53498
0.535023
0.535066
0.535109
0.535109
0.535152
0.535195
0.535238
0.535281
0.535281
0.535324
0.535367
0.53541
0.535454
0.535454
0.535497
0.53554
0.535584
0.535627
0.535627
0.535671
0.535714
0.535758
0.535801
0.535801
0.535845
0.535889
0.535932
0.535976
0.535976
0.53602
0.536064
0.536108
0.536152
0.536152
0.536196
0.53624
0.536284
0.536328
0.536328
0.536372
0.536416
0.53646
0.536504
0.536504
0.536549
0.536593
0.536637
0.536682
0.536682
0.536726
0.536771
0.536815
0.53686
0.53686
0.536905
0.536949
0.536994
0.537039
0.537039
0.537083
0.537128
0.537173
0.537218
0.537218
0.537263
0.537308
0.537353
0.537398
0.537398
0.537443
0.537488
0.537534
0.537579
0.537579
0.537624
0.537669
0.537715
0.53776
0.53776
0.537806
0.537851
0.537897
0.537942
0.537942
0.537988
0.538033
0.538079
0.538125
0.538125
0.538171
0.538216
0.538262
0.538308
0.538308
0.538354
0.5384
0.538446
0.538492
0.538492
0.538538
0.538584
0.538631
0.538677
0.538677
0.538723
0.538769
0.538816
0.538862
0.538862
0.538909
0.538955
0.539002
0.539048
0.539048
0.539095
0.539141
0.539188
0.539235
0.539235
0.539281
0.539328
0.539375
0.539422
0.539422
0.539469
0.539516
0.539563
0.53961
0.53961
0.539657
0.539704
0.539751
0.539799
0.539799
0.539846
0.539893
0.539941
0.539988
0.539988
0.540035
0.540083
0.54013
0.540178
0.540178
0.540225
0.540273
0.540321
0.540368
0.540368
0.540416
0.540464
0.540512
0.54056
0.54056
0.540608
0.540656
0.540704
0.540752
0.540752
0.5408
0.540848
0.540896
0.540944
0.540944
0.540993
0.541041
0.541089
0.541138
0.541138
0.541186
0.541235
0.541283
0.541332
0.541332
0.54138
0.541429
0.541477
0.541526
0.541526
0.541575
0.541624
0.541673
0.541722
0.541722
0.54177
0.541819
0.541868
0.541917
0.541917
0.541967
0.542016
0.542065
0.542114
0.542114
0.542163
0.542213
0.542262
0.542311
0.542311
0.542361
0.54241
0.54246
0.542509
0.542509
0.542559
0.542609
0.542658
0.542708
0.542708
0.542758
0.542808
0.542858
0.542907
0.542907
0.542957
0.543007
0.543057
0.543107
0.543107
0.543158
0.543208
0.543258
0.543308
0.543308
0.543358
0.543409
0.543459
0.543509
0.543509
0.54356
0.54361
0.543661
0.543711
0.543711
0.543762
0.543813
0.543863
0.543914
0.543914
0.543965
0.544016
0.544067
0.544118
0.544118
0.544169
0.54422
0.544271
0.544322
0.544322
0.544373
0.544424
0.544475
0.544526
0.544526
0.544578
0.544629
0.54468
0.544732
0.544732
0.544783
0.544835
0.544886
0.544938
0.544938
0.54499
0.545041
0.545093
0.545145
0.545145
0.545197
0.545248
0.5453
0.545352
0.545352
0.545404
0.545456
0.545508
0.54556
0.54556
0.545613
0.545665
0.545717
0.545769
0.545769
0.545822
0.545874
0.545926
0.545979
0.545979
0.546031
0.546084
0.546136
0.546189
0.546189
0.546242
0.546294
0.546347
0.5464
0.5464
0.546453
0.546506
0.546559
0.546612
0.546612
0.546665
0.546718
0.546771
0.546824
0.546824
0.546877
0.54693
0.546983
0.547037
0.547037
0.54709
0.547143
0.547197
0.54725
0.54725
0.547304
0.547357
0.547411
0.547465
0.547465
0.547518
0.547572
0.547626
0.54768
0.54768
0.547734
0.547788
0.547842
0.547896
0.547896
0.54795
0.548004
0.548058
0.548112
0.548112
0.548166
0.54822
0.548275
0.548329
0.548329
0.548383
0.548438
0.548492
0.548547
0.548547
0.548601
0.548656
0.548711
0.548765
0.548765
0.54882
0.548875
0.54893
0.548985
0.548985
0.549039
0.549094
0.549149
0.549204
0.549204
0.54926
0.549315
0.54937
0.549425
0.549425
0.54948
0.549536
0.549591
0.549646
0.549646
0.549702
0.549757
0.549813
0.549868
0.549868
0.549924
0.54998
0.550035
0.550091
0.550091
0.550147
0.550203
0.550258
0.550314
0.550314
0.55037
0.550426
0.550482
0.550538
0.550538
0.550595
0.550651
0.550707
0.550763
0.550763
0.55082
0.550876
0.550932
0.550989
0.550989
0.551045
0.551102
0.551158
0.551215
0.551215
0.551272
0.551328
0.551385
0.551442
0.551442
0.551499
0.551556
0.551612
0.551669
0.551669
0.551726
0.551784
0.551841
0.551898
0.551898
0.551955
0.552012
0.552069
0.552127
0.552127
0.552184
0.552242
0.552299
0.552357
0.552357
0.552414
0.552472
0.552529
0.552587
0.552587
0.552645
0.552702
0.55276
0.552818
0.552818
0.552876
0.552934
0.552992
0.55305
0.55305
0.553108
0.553166
0.553224
0.553282
0.553282
0.553341
0.553399
0.553457
0.553516
0.553516
0.553574
0.553633
0.553691
0.55375
0.55375
0.553808
0.553867
0.553926
0.553984
0.553984
0.554043
0.554102
0.554161
0.55422
0.55422
0.554279
0.554338
0.554397
0.554456
0.554456
0.554515
0.554574
0.554634
0.554693
0.554693
0.554752
0.554812
0.554871
0.55493
0.55493
0.55499
0.555049
0.555109
0.555169
0.555169
0.555228
0.555288
0.555348
0.555408
0.555408
0.555468
0.555527
0.555587
0.555647
0.555647
0.555707
0.555768
0.555828
0.555888
0.555888
0.555948
0.556008
0.556069
0.556129
0.556129
0.556189
0.55625
0.55631
0.556371
0.556371
0.556431
0.556492
0.556553
0.556613
0.556613
0.556674
0.556735
0.556796
0.556857
0.556857
0.556918
0.556979
0.55704
0.557101
0.557101
0.557162
0.557223
0.557284
0.557346
0.557346
0.557407
0.557468
0.55753
0.557591
0.557591
0.557653
0.557714
0.557776
0.557837
0.557837
0.557899
0.557961
0.558023
0.558084
0.558084
0.558146
0.558208
0.55827
0.558332
0.558332
0.558394
0.558456
0.558518
0.55858
0.55858
0.558643
0.558705
0.558767
0.55883
0.55883
0.558892
0.558954
0.559017
0.559079
0.559079
0.559142
0.559205
0.559267
0.55933
0.55933
0.559393
0.559456
0.559519
0.559581
0.559581
0.559644
0.559707
0.55977
0.559833
0.559833
0.559897
0.55996
0.560022
0.560083
0.560083
0.560144
0.560205
0.560266
0.560327
0.560327
0.560388
0.56045
0.560511
0.560572
0.560572
0.560633
0.560695
0.560756
0.560818
0.560818
0.560879
0.560941
0.561002
0.561064
0.561064
0.561126
0.561187
0.561249
0.561311
0.561311
0.561373
0.561433
0.561493
0.561552
0.561552
0.561611
0.56167
0.561729
0.561788
0.561788
0.561847
0.561906
0.561965
0.562025
0.562025
0.562084
0.562143
0.562203
0.562262
0.562262
0.562321
0.562381
0.56244
0.5625
0.5625
0.56256
0.562619
0.562679
0.562738
0.562738
0.562796
0.562853
0.56291
0.562967
0.562967
0.563024
0.56308
0.563137
0.563194
0.563194
0.563251
0.563308
0.563365
0.563422
0.563422
0.563479
0.563536
0.563593
0.56365
0.56365
0.563707
0.563764
0.563821
0.563879
0.563879
0.563936
0.563993
0.564049
0.564105
0.564105
0.564159
0.564214
0.564268
0.564323
0.564323
0.564377
0.564432
0.564486
0.564541
0.564541
0.564595
0.56465
0.564704
0.564759
0.564759
0.564814
0.564868
0.564923
0.564978
0.564978
0.565033
0.565087
0.565142
0.565197
0.565197
0.565251
0.565304
0.565357
0.565409
0.565409
0.565461
0.565513
0.565566
0.565618
0.565618
0.56567
0.565722
0.565774
0.565826
0.565826
0.565879
0.565931
0.565983
0.566035
0.566035
0.566088
0.56614
0.566193
0.566245
0.566245
0.566297
0.56635
0.566401
0.566452
0.566452
0.566503
0.566553
0.566603
0.566653
0.566653
0.566703
0.566752
0.566802
0.566852
0.566852
0.566902
0.566952
0.567002
0.567052
0.567052
0.567102
0.567152
0.567202
0.567252
0.567252
0.567302
0.567352
0.567402
0.567452
0.567452
0.567501
0.56755
0.567598
0.567646
0.567646
0.567694
0.567741
0.567789
0.567836
0.567836
0.567884
0.567932
0.567979
0.568027
0.568027
0.568075
0.568123
0.56817
0.568218
0.568218
0.568266
0.568314
0.568362
0.568409
0.568409
0.568457
0.568504
0.568551
0.568597
0.568597
0.568643
0.568689
0.568735
0.56878
0.56878
0.568825
0.568871
0.568916
0.568962
0.568962
0.569007
0.569053
0.569099
0.569144
0.569144
0.56919
0.569235
0.569281
0.569327
0.569327
0.569372
0.569418
0.569463
0.569508
0.569508
0.569552
0.569596
0.56964
0.569683
0.569683
0.569727
0.56977
0.569814
0.569857
0.569857
0.5699
0.569944
0.569987
0.570031
0.570031
0.570074
0.570118
0.570161
0.570205
0.570205
0.570248
0.570292
0.570335
0.570378
0.570378
0.570421
0.570463
0.570505
0.570547
0.570547
0.570589
0.57063
0.570672
0.570713
0.570713
0.570754
0.570796
0.570837
0.570879
0.570879
0.57092
0.570962
0.571003
0.571045
0.571045
0.571086
0.571128
0.571169
0.57121
0.57121
0.571251
0.571292
0.571332
0.571372
0.571372
0.571412
0.571452
0.571491
0.571531
0.571531
0.57157
0.57161
0.571649
0.571689
0.571689
0.571728
0.571768
0.571807
0.571847
0.571847
0.571886
0.571926
0.571965
0.572005
0.572005
0.572044
0.572083
0.572122
0.57216
0.57216
0.572198
0.572236
0.572274
0.572311
0.572311
0.572349
0.572387
0.572424
0.572462
0.572462
0.5725
0.572537
0.572575
0.572613
0.572613
0.57265
0.572688
0.572726
0.572763
0.572763
0.572801
0.572838
0.572875
0.572911
0.572911
0.572948
0.572984
0.57302
0.573056
0.573056
0.573092
0.573128
0.573164
0.5732
0.5732
0.573235
0.573271
0.573307
0.573343
0.573343
0.573379
0.573415
0.573451
0.573486
0.573486
0.573522
0.573558
0.573593
0.573628
0.573628
0.573663
0.573697
0.573731
0.573766
0.573766
0.5738
0.573834
0.573868
0.573902
0.573902
0.573936
0.573971
0.574005
0.574039
0.574039
0.574073
0.574107
0.574141
0.574176
0.574176
0.574209
0.574243
0.574277
0.57431
0.57431
0.574343
0.574376
0.574409
0.574441
0.574441
0.574474
0.574507
0.574539
0.574572
0.574572
0.574604
0.574637
0.574669
0.574702
0.574702
0.574734
0.574767
0.574799
0.574832
0.574832
0.574864
0.574896
0.574928
0.574959
0.574959
0.574991
0.575022
0.575053
0.575085
0.575085
0.575116
0.575146
0.575177
0.575208
0.575208
0.575239
0.57527
0.575301
0.575332
0.575332
0.575363
0.575394
0.575425
0.575456
0.575456
0.575486
0.575517
0.575547
0.575577
0.575577
0.575607
0.575637
0.575667
0.575696
0.575696
0.575726
0.575755
0.575784
0.575814
0.575814
0.575843
0.575873
0.575902
0.575932
0.575932
0.575961
0.575991
0.57602
0.576049
0.576049
0.576078
0.576107
0.576136
0.576164
0.576164
0.576193
0.576221
0.576249
0.576277
0.576277
0.576305
0.576333
0.576361
0.576389
0.576389
0.576417
0.576446
0.576474
0.576502
0.576502
0.57653
0.576557
0.576585
0.576613
0.576613
0.57664
0.576668
0.576695
0.576722
0.576722
0.576749
0.576776
0.576803
0.576829
0.576829
0.576856
0.576883
0.576909
0.576936
0.576936
0.576963
0.576989
0.577016
0.577043
0.577043
0.577069
0.577096
0.577122
0.577148
0.577148
0.577174
0.5772
0.577226
0.577252
0.577252
0.577277
0.577303
0.577328
0.577353
0.577353
0.577379
0.577404
0.57743
0.577455
0.577455
0.57748
0.577506
0.577531
0.577556
0.577556
0.577581
0.577606
0.577631
0.577656
0.577656
0.577681
0.577705
0.57773
0.577754
0.577754
0.577778
0.577802
0.577827
0.577851
0.577851
0.577875
0.577899
0.577923
0.577947
0.577947
0.577971
0.577995
0.578019
0.578043
0.578043
0.578067
0.578091
0.578114
0.578138
0.578138
0.578161
0.578184
0.578207
0.57823
0.57823
0.578253
0.578276
0.578299
0.578322
0.578322
0.578345
0.578368
0.578391
0.578414
0.578414
0.578437
0.57846
0.578482
0.578505
0.578505
0.578528
0.57855
0.578572
0.578594
0.578594
0.578616
0.578638
0.57866
0.578682
0.578682
0.578704
0.578726
0.578748
0.57877
0.57877
0.578791
0.578813
0.578835
0.578857
0.578857
0.578878
0.5789
0.578921
0.578943
0.578943
0.578964
0.578985
0.579006
0.579027
0.579027
0.579048
0.579069
0.579089
0.57911
0.57911
0.579131
0.579152
0.579173
0.579193
0.579193
0.579214
0.579235
0.579255
0.579276
0.579276
0.579296
0.579317
0.579337
0.579357
0.579357
0.579377
0.579397
0.579417
0.579437
0.579437
0.579457
0.579476
0.579496
0.579516
0.579516
0.579536
0.579555
0.579575
0.579595
0.579595
0.579614
0.579634
0.579653
0.579673
0.579673
0.579692
0.579711
0.57973
0.579749
0.579749
0.579768
0.579787
0.579806
0.579825
0.579825
0.579844
0.579863
0.579881
0.5799
0.5799
0.579919
0.579938
0.579956
0.579975
0.579975
0.579993
0.580012
0.58003
0.580048
0.580048
0.580067
0.580085
0.580103
0.580121
0.580121
0.580139
0.580157
0.580175
0.580193
0.580193
0.58021
0.580228
0.580246
0.580264
0.580264
0.580282
0.580299
0.580317
0.580335
0.580335
0.580352
0.580369
0.580387
0.580404
0.580404
0.580421
0.580438
0.580455
0.580472
0.580472
0.58049
0.580507
0.580524
0.580541
0.580541
0.580558
0.580575
0.580591
0.580608
0.580608
0.580625
0.580642
0.580658
0.580675
0.580675
0.580691
0.580708
0.580724
0.58074
0.58074
0.580757
0.580773
0.580789
0.580805
0.580805
0.580822
0.580838
0.580854
0.58087
0.58087
0.580886
0.580902
0.580918
0.580934
0.580934
0.58095
0.580965
0.580981
0.580997
0.580997
0.581012
0.581028
0.581043
0.581059
0.581059
0.581074
0.58109
0.581105
0.581121
0.581121
0.581136
0.581151
0.581166
0.581182
0.581182
0.581197
0.581212
0.581227
0.581242
0.581242
0.581257
0.581272
0.581286
0.581301
0.581301
0.581316
0.581331
0.581345
0.58136
0.58136
0.581375
0.58139
0.581404
0.581419
0.581419
0.581433
0.581448
0.581462
0.581476
0.581476
0.581491
0.581505
0.581519
0.581533
0.581533
0.581547
0.581561
0.581575
0.58159
0.58159
0.581604
0.581618
0.581632
0.581645
0.581645
0.581659
0.581673
0.581687
0.581701
0.581701
0.581714
0.581728
0.581742
0.581755
0.581755
0.581769
0.581782
0.581795
0.581809
0.581809
0.581822
0.581836
0.581849
0.581862
0.581862
0.581876
0.581889
0.581902
0.581915
0.581915
0.581928
0.581941
0.581954
0.581967
0.581967
0.58198
0.581993
0.582006
0.582019
0.582019
0.582032
0.582044
0.582057
0.58207
0.58207
0.582083
0.582095
0.582108
0.582121
0.582121
0.582133
0.582146
0.582158
0.58217
0.58217
0.582183
0.582195
0.582207
0.58222
0.58222
0.582232
0.582244
0.582256
0.582269
0.582269
0.582281
0.582293
0.582305
0.582317
0.582317
0.582329
0.582341
0.582353
0.582365
0.582365
0.582377
0.582388
0.5824
0.582412
0.582412
0.582424
0.582435
0.582447
0.582459
0.582459
0.58247
0.582482
0.582493
0.582505
0.582505
0.582516
0.582528
0.582539
0.582551
0.582551
0.582562
0.582573
0.582585
0.582596
0.582596
0.582607
0.582618
0.582629
0.582641
0.582641
0.582652
0.582663
0.582674
0.582685
0.582685
0.582696
0.582707
0.582718
0.582729
0.582729
0.58274
0.58275
0.582761
0.582772
0.582772
0.582783
0.582793
0.582804
0.582815
0.582815
0.582825
0.582836
0.582847
0.582857
0.582857
0.582868
0.582878
0.582889
0.582899
0.582899
0.582909
0.58292
0.58293
0.58294
0.58294
0.582951
0.582961
0.582971
0.582981
0.582981
0.582992
0.583002
0.583012
0.583022
0.583022
0.583032
0.583042
0.583052
0.583062
0.583062
0.583072
0.583082
0.583092
0.583102
0.583102
0.583112
0.583122
0.583131
0.583141
0.583141
0.583151
0.583161
0.58317
0.58318
0.58318
0.58319
0.583199
0.583209
0.583219
0.583219
0.583228
0.583238
0.583247
0.583257
0.583257
0.583266
0.583275
0.583285
0.583294
0.583294
0.583303
0.583313
0.583322
0.583331
0.583331
0.583341
0.58335
0.583359
0.583368
0.583368
0.583377
0.583387
0.583396
0.583405
0.583405
0.583414
0.583423
0.583432
0.583441
0.583441
0.58345
0.583459
0.583468
0.583477
0.583477
0.583485
0.583494
0.583503
0.583512
0.583512
0.583521
0.583529
0.583538
0.583547
0.583547
0.583555
0.583564
0.583573
0.583581
0.583581
0.58359
0.583599
0.583607
0.583616
0.583616
0.583624
0.583633
0.583641
0.58365
0.58365
0.583658
0.583666
0.583675
0.583683
0.583683
0.583691
0.5837
0.583708
0.583716
0.583716
0.583725
0.583733
0.583741
0.583749
0.583749
0.583757
0.583765
0.583774
0.583782
0.583782
0.58379
0.583798
0.583806
0.583814
0.583814
0.583822
0.58383
0.583838
0.583846
0.583846
0.583854
0.583862
0.583869
0.583877
0.583877
0.583885
0.583893
0.583901
0.583909
0.583909
0.583916
0.583924
0.583932
0.583939
0.583939
0.583947
0.583955
0.583962
0.58397
0.58397
0.583978
0.583985
0.583993
0.584
0.584
0.584008
0.584015
0.584023
0.58403
0.58403
0.584038
0.584045
0.584053
0.58406
0.58406
0.584067
0.584075
0.584082
0.584089
0.584089
0.584097
0.584104
0.584111
0.584119
0.584119
0.584126
0.584133
0.58414
0.584147
0.584147
0.584155
0.584162
0.584169
0.584176
0.584176
0.584183
0.58419
0.584197
0.584204
0.584204
0.584211
0.584218
0.584225
0.584232
0.584232
0.584239
0.584246
0.584253
0.58426
0.58426
0.584267
0.584274
0.584281
0.584288
0.584288
0.584294
0.584301
0.584308
0.584315
0.584315
0.584322
0.584328
0.584335
0.584342
0.584342
0.584348
0.584355
0.584362
0.584368
0.584368
0.584375
0.584382
0.584388
0.584395
0.584395
0.584401
0.584408
0.584415
0.584421
0.584421
0.584428
0.584434
0.584441
0.584447
0.584447
0.584454
0.58446
0.584466
0.584473
0.584473
0.584479
0.584486
0.584492
0.584498
0.584498
0.584505
0.584511
0.584517
0.584524
0.584524
0.58453
0.584536
0.584542
0.584549
0.584549
0.584555
0.584561
0.584567
0.584573
0.584573
0.58458
0.584586
0.584592
0.584598
0.584598
0.584604
0.58461
0.584616
0.584622
0.584622
0.584628
0.584634
0.584641
0.584647
0.584647
0.584653
0.584659
0.584665
0.58467
0.58467
0.584676
0.584682
0.584688
0.584694
0.584694
0.5847
0.584706
0.584712
0.584718
0.584718
0.584724
0.584729
0.584735
0.584741
0.584741
0.584747
0.584753
0.584758
0.584764
0.584764
0.58477
0.584776
0.584781
0.584787
0.584787
0.584793
0.584799
0.584804
0.58481
0.58481
0.584816
0.584821
0.584827
0.584832
0.584832
0.584838
0.584844
0.584849
0.584855
0.584855
0.58486
0.584866
0.584871
0.584877
0.584877
0.584882
0.584888
0.584893
0.584899
0.584899
0.584904
0.58491
0.584915
0.584921
0.584921
0.584926
0.584932
0.584937
0.584942
0.584942
0.584948
0.584953
0.584958
0.584964
0.584964
0.584969
0.584975
0.58498
0.584985
0.584985
0.58499
0.584996
0.585001
0.585006
0.585006
0.585012
0.585017
0.585022
0.585027
0.585027
0.585032
0.585038
0.585043
0.585048
0.585048
0.585053
0.585058
0.585064
0.585069
0.585069
0.585074
0.585079
0.585084
0.585089
0.585089
0.585094
0.585099
0.585104
0.585109
0.585109
0.585115
0.58512
0.585125
0.58513
0.58513
0.585135
0.58514
0.585145
0.58515
0.58515
0.585155
0.58516
0.585165
0.58517
0.58517
0.585174
0.585179
0.585184
0.585189
0.585189
0.585194
0.585199
0.585204
0.585209
0.585209
0.585214