<?xml version="1.0"?>
<VTKFile type="UnstructuredGrid" version="0.1" byte_order="LittleEndian">
<UnstructuredGrid>
<Piece NumberOfPoints="5000" NumberOfCells="4000">
<PointData Scalars="Reaction 0">
<DataArray type="Float32" Name="Reaction 0" format="ascii">
0.367796
0.367796
0.367796
0.367797
0.367797
0.367797
0.367797
0.367797
0.367797
0.367797
0.367797
0.367798
0.367798
0.367798
0.367798
0.367798
0.367799
0.367799
0.3678
0.3678
0.3678
0.367801
0.367801
0.367802
0.367802
0.367802
0.367803
0.367803
0.367804
0.367805
0.367805
0.367806
0.367806
0.367807
0.367808
0.367808
0.367809
0.36781
0.36781
0.367811
0.367811
0.367812
0.367813
0.367814
0.367815
0.367815
0.367816
0.367818
0.367819
0.36782
0.36782
0.367821
0.367822
0.367823
0.367825
0.367825
0.367826
0.367827
0.367829
0.36783
0.36783
0.367831
0.367833
0.367834
0.367836
0.367836
0.367837
0.367839
0.367841
0.367842
0.367842
0.367844
0.367846
0.367847
0.367849
0.367849
0.367851
0.367853
0.367854
0.367856
0.367856
0.367858
0.36786
0.367862
0.367864
0.367864
0.367866
0.367868
0.36787
0.367872
0.367872
0.367874
0.367876
0.367879
0.367881
0.367881
0.367883
0.367885
0.367888
0.36789
0.36789
0.367892
0.367895
0.367897
0.3679
0.3679
0.367902
0.367905
0.367907
0.36791
0.36791
0.367912
0.367915
0.367917
0.36792
0.36792
0.367923
0.367926
0.367928
0.367931
0.367931
0.367934
0.367937
0.36794
0.367943
0.367943
0.367946
0.367948
0.367951
0.367954
0.367954
0.367958
0.367961
0.367964
0.367967
0.367967
0.36797
0.367973
0.367976
0.36798
0.36798
0.367983
0.367986
0.36799
0.367993
0.367993
0.367996
0.368
0.368003
0.368007
0.368007
0.36801
0.368014
0.368018
0.368021
0.368021
0.368025
0.368028
0.368032
0.368036
0.368036
0.36804
0.368043
0.368047
0.368051
0.368051
0.368055
0.368059
0.368063
0.368067
0.368067
0.368071
0.368075
0.368079
0.368083
0.368083
0.368087
0.368091
0.368095
0.368099
0.368099
0.368104
0.368108
0.368112
0.368117
0.368117
0.368121
0.368125
0.36813
0.368134
0.368134
0.368139
0.368143
0.368148
0.368152
0.368152
0.368157
0.368161
0.368166
0.368171
0.368171
0.368175
0.36818
0.368185
0.36819
0.36819
0.368194
0.368199
0.368204
0.368209
0.368209
0.368214
0.368219
0.368224
0.368229
0.368229
0.368234
0.368239
0.368244
0.368249
0.368249
0.368254
0.368259
0.368265
0.36827
0.36827
0.368275
0.368281
0.368286
0.368291
0.368291
0.368297
0.368302
0.368308
0.368313
0.368313
0.368318
0.368324
0.36833
0.368335
0.368335
0.368341
0.368346
0.368352
0.368358
0.368358
0.368364
0.368369
0.368375
0.368381
0.368381
0.368387
0.368393
0.368399
0.368405
0.368405
0.368411
0.368417
0.368423
0.368429
0.368429
0.368435
0.368441
0.368447
0.368453
0.368453
0.368459
0.368466
0.368472
0.368478
0.368478
0.368485
0.368491
0.368497
0.368504
0.368504
0.36851
0.368517
0.368523
0.36853
0.36853
0.368536
0.368543
0.36855
0.368556
0.368556
0.368563
0.36857
0.368576
0.368583
0.368583
0.36859
0.368597
0.368604
0.36861
0.36861
0.368617
0.368624
0.368631
0.368638
0.368638
0.368645
0.368652
0.368659
0.368667
0.368667
0.368674
0.368681
0.368688
0.368695
0.368695
0.368703
0.36871
0.368717
0.368724
0.368724
0.368732
0.368739
0.368747
0.368754
0.368754
0.368762
0.368769
0.368777
0.368784
0.368784
0.368792
0.3688
0.368807
0.368815
0.368815
0.368823
0.36883
0.368838
0.368846
0.368846
0.368854
0.368862
0.36887
0.368878
0.368878
0.368886
0.368894
0.368902
0.36891
0.36891
0.368918
0.368926
0.368934
0.368942
0.368942
0.36895
0.368959
0.368967
0.368975
0.368975
0.368983
0.368992
0.369
0.369009
0.369009
0.369017
0.369025
0.369034
0.369042
0.369042
0.369051
0.36906
0.369068
0.369077
0.369077
0.369085
0.369094
0.369103
0.369112
0.369112
0.36912
0.369129
0.369138
0.369147
0.369147
0.369156
0.369165
0.369174
0.369183
0.369183
0.369192
0.369201
0.36921
0.369219
0.369219
0.369228
0.369237
0.369246
0.369256
0.369256
0.369265
0.369274
0.369283
0.369293
0.369293
0.369302
0.369312
0.369321
0.36933
0.36933
0.36934
0.369349
0.369359
0.369368
0.369368
0.369378
0.369388
0.369397
0.369407
0.369407
0.369417
0.369427
0.369436
0.369446
0.369446
0.369456
0.369466
0.369476
0.369486
0.369486
0.369496
0.369506
0.369516
0.369526
0.369526
0.369536
0.369546
0.369556
0.369566
0.369566
0.369576
0.369586
0.369597
0.369607
0.369607
0.369617
0.369628
0.369638
0.369648
0.369648
0.369659
0.369669
0.36968
0.36969
0.36969
0.369701
0.369711
0.369722
0.369732
0.369732
0.369743
0.369754
0.369764
0.369775
0.369775
0.369786
0.369797
0.369808
0.369818
0.369818
0.369829
0.36984
0.369851
0.369862
0.369862
0.369873
0.369884
0.369895
0.369906
0.369906
0.369917
0.369928
0.36994
0.369951
0.369951
0.369962
0.369973
0.369985
0.369996
0.369996
0.370007
0.370019
0.37003
0.370042
0.370042
0.370053
0.370064
0.370076
0.370088
0.370088
0.370099
0.370111
0.370122
0.370134
0.370134
0.370146
0.370157
0.370169
0.370181
0.370181
0.370193
0.370205
0.370217
0.370228
0.370228
0.37024
0.370252
0.370264
0.370276
0.370276
0.370288
0.3703
0.370313
0.370325
0.370325
0.370337
0.370349
0.370361
0.370374
0.370374
0.370386
0.370398
0.37041
0.370423
0.370423
0.370435
0.370448
0.37046
0.370473
0.370473
0.370485
0.370498
0.37051
0.370523
0.370523
0.370535
0.370548
0.370561
0.370573
0.370573
0.370586
0.370599
0.370612
0.370625
0.370625
0.370638
0.37065
0.370663
0.370676
0.370676
0.370689
0.370702
0.370715
0.370728
0.370728
0.370741
0.370755
0.370768
0.370781
0.370781
0.370794
0.370807
0.370821
0.370834
0.370834
0.370847
0.370861
0.370874
0.370887
0.370887
0.370901
0.370914
0.370928
0.370941
0.370941
0.370955
0.370969
0.370982
0.370996
0.370996
0.371009
0.371023
0.371037
0.371051
0.371051
0.371064
0.371078
0.371092
0.371106
0.371106
0.37112
0.371134
0.371148
0.371162
0.371162
0.371176
0.37119
0.371204
0.371218
0.371218
0.371232
0.371246
0.371261
0.371275
0.371275
0.371289
0.371303
0.371318
0.371332
0.371332
0.371346
0.371361
0.371375
0.37139
0.37139
0.371404
0.371419
0.371433
0.371448
0.371448
0.371463
0.371477
0.371492
0.371507
0.371507
0.371521
0.371536
0.371551
0.371566
0.371566
0.37158
0.371595
0.37161
0.371625
0.371625
0.37164
0.371655
0.37167
0.371685
0.371685
0.3717
0.371715
0.37173
0.371746
0.371746
0.371761
0.371776
0.371791
0.371807
0.371807
0.371822
0.371837
0.371853
0.371868
0.371868
0.371883
0.371899
0.371914
0.37193
0.37193
0.371945
0.371961
0.371977
0.371992
0.371992
0.372008
0.372024
0.372039
0.372055
0.372055
0.372071
0.372087
0.372102
0.372118
0.372118
0.372134
0.37215
0.372166
0.372182
0.372182
0.372198
0.372214
0.37223
0.372246
0.372246
0.372262
0.372278
0.372295
0.372311
0.372311
0.372327
0.372343
0.37236
0.372376
0.372376
0.372392
0.372409
0.372425
0.372442
0.372442
0.372458
0.372474
0.372491
0.372508
0.372508
0.372524
0.372541
0.372557
0.372574
0.372574
0.372591
0.372608
0.372624
0.372641
0.372641
0.372658
0.372675
0.372692
0.372709
0.372709
0.372725
0.372742
0.372759
0.372776
0.372776
0.372793
0.372811
0.372828
0.372845
0.372845
0.372862
0.372879
0.372896
0.372914
0.372914
0.372931
0.372948
0.372966
0.372983
0.372983
0.373
0.373018
0.373035
0.373053
0.373053
0.37307
0.373088
0.373105
0.373123
0.373123
0.373141
0.373158
0.373176
0.373194
0.373194
0.373211
0.373229
0.373247
0.373265
0.373265
0.373283
0.373301
0.373319
0.373336
0.373336
0.373354
0.373372
0.373391
0.373409
0.373409
0.373427
0.373445
0.373463
0.373481
0.373481
0.373499
0.373518
0.373536
0.373554
0.373554
0.373572
0.373591
0.373609
0.373628
0.373628
0.373646
0.373665
0.373683
0.373702
0.373702
0.37372
0.373739
0.373757
0.373776
0.373776
0.373795
0.373813
0.373832
0.373851
0.373851
0.37387
0.373889
0.373907
0.373926
0.373926
0.373945
0.373964
0.373983
0.374002
0.374002
0.374021
0.37404
0.374059
0.374078
0.374078
0.374097
0.374117
0.374136
0.374155
0.374155
0.374174
0.374194
0.374213
0.374232
0.374232
0.374252
0.374271
0.37429
0.37431
0.37431
0.374329
0.374349
0.374368
0.374388
0.374388
0.374408
0.374427
0.374447
0.374467
0.374467
0.374486
0.374506
0.374526
0.374546
0.374546
0.374566
0.374585
0.374605
0.374625
0.374625
0.374645
0.374665
0.374685
0.374705
0.374705
0.374725
0.374745
0.374765
0.374786
0.374786
0.374806
0.374826
0.374846
0.374867
0.374867
0.374887
0.374907
0.374928
0.374948
0.374948
0.374968
0.374989
0.375009
0.37503
0.37503
0.37505
0.375071
0.375091
0.375112
0.375112
0.375133
0.375153
0.375174
0.375195
0.375195
0.375216
0.375236
0.375257
0.375278
0.375278
0.375299
0.37532
0.375341
0.375362
0.375362
0.375383
0.375404
0.375425
0.375446
0.375446
0.375467
0.375488
0.375509
0.375531
0.375531
0.375552
0.375573
0.375594
0.375616
0.375616
0.375637
0.375658
0.37568
0.375701
0.375701
0.375723
0.375744
0.375766
0.375787
0.375787
0.375809
0.37583
0.375852
0.375874
0.375874
0.375895
0.375917
0.375939
0.375961
0.375961
0.375982
0.376004
0.376026
0.376048
0.376048
0.37607
0.376092
0.376114
0.376136
0.376136
0.376158
0.37618
0.376202
0.376224
0.376224
0.376246
0.376268
0.376291
0.376313
0.376313
0.376335
0.376357
0.37638
0.376402
0.376402
0.376425
0.376447
0.376469
0.376492
0.376492
0.376514
0.376537
0.376559
0.376582
0.376582
0.376605
0.376627
0.37665
0.376673
0.376673
0.376695
0.376718
0.376741
0.376764
0.376764
0.376787
0.376809
0.376832
0.376855
0.376855
0.376878
0.376901
0.376924
0.376947
0.376947
0.37697
0.376993
0.377017
0.37704
0.37704
0.377063
0.377086
0.377109
0.377133
0.377133
0.377156
0.377179
0.377203
0.377226
0.377226
0.37725
0.377273
0.377296
0.37732
0.37732
0.377344
0.377367
0.377391
0.377414
0.377414
0.377438
0.377462
0.377485
0.377509
0.377509
0.377533
0.377557
0.377581
0.377604
0.377604
0.377628
0.377652
0.377676
0.3777
0.3777
0.377724
0.377748
0.377772
0.377796
0.377796
0.37782
0.377845
0.377869
0.377893
0.377893
0.377917
0.377941
0.377966
0.37799
0.37799
0.378014
0.378039
0.378063
0.378088
0.378088
0.378112
0.378137
0.378161
0.378186
0.378186
0.37821
0.378235
0.378259
0.378284
0.378284
0.378309
0.378334
0.378358
0.378383
0.378383
0.378408
0.378433
0.378458
0.378482
0.378482
0.378507
0.378532
0.378557
0.378582
0.378582
0.378607
0.378632
0.378658
0.378683
0.378683
0.378708
0.378733
0.378758
0.378783
0.378783
0.378809
0.378834
0.378859
0.378885
0.378885
0.37891
0.378935
0.378961
0.378986
0.378986
0.379012
0.379037
0.379063
0.379089
0.379089
0.379114
0.37914
0.379166
0.379191
0.379191
0.379217
0.379243
0.379269
0.379294
0.379294
0.37932
0.379346
0.379372
0.379398
0.379398
0.379424
0.37945
0.379476
0.379502
0.379502
0.379528
0.379554
0.37958
0.379606
0.379606
0.379633
0.379659
0.379685
0.379711
0.379711
0.379738
0.379764
0.37979
0.379817
0.379817
0.379843
0.37987
0.379896
0.379923
0.379923
0.379949
0.379976
0.380002
0.380029
0.380029
0.380056
0.380082
0.380109
0.380136
0.380136
0.380162
0.380189
0.380216
0.380243
0.380243
0.38027
0.380297
0.380324
0.380351
0.380351
0.380378
0.380405
0.380432
0.380459
0.380459
0.380486
0.380513
0.38054
0.380567
0.380567
0.380595
0.380622
0.380649
0.380677
0.380677
0.380704
0.380731
0.380759
0.380786
0.380786
0.380814
0.380841
0.380869
0.380896
0.380896
0.380924
0.380951
0.380979
0.381007
0.381007
0.381034
0.381062
0.38109
0.381117
0.381117
0.381145
0.381173
0.381201
0.381229
0.381229
0.381257
0.381285
0.381313
0.381341
0.381341
0.381369
0.381397
0.381425
0.381453
0.381453
0.381481
0.381509
0.381538
0.381566
0.381566
0.381594
0.381622
0.381651
0.381679
0.381679
0.381707
0.381736
0.381764
0.381793
0.381793
0.381821
0.38185
0.381878
0.381907
0.381907
0.381935
0.381964
0.381993
0.382021
0.382021
0.38205
0.382079
0.382108
0.382136
0.382136
0.382165
0.382194
0.382223
0.382252
0.382252
0.382281
0.38231
0.382339
0.382368
0.382368
0.382397
0.382426
0.382455
0.382484
0.382484
0.382514
0.382543
0.382572
0.382601
0.382601
0.382631
0.38266
0.382689
0.382719
0.382719
0.382748
0.382777
0.382807
0.382836
0.382836
0.382866
0.382896
0.382925
0.382955
0.382955
0.382984
0.383014
0.383044
0.383073
0.383073
0.383103
0.383133
0.383163
0.383193
0.383193
0.383223
0.383252
0.383282
0.383312
0.383312
0.383342
0.383372
0.383402
0.383432
0.383432
0.383463
0.383493
0.383523
0.383553
0.383553
0.383583
0.383613
0.383644
0.383674
0.383674
0.383704
0.383735
0.383765
0.383795
0.383795
0.383826
0.383856
0.383887
0.383917
0.383917
0.383948
0.383979
0.384009
0.38404
0.38404
0.384071
0.384101
0.384132
0.384163
0.384163
0.384193
0.384224
0.384255
0.384286
0.384286
0.384317
0.384348
0.384379
0.38441
0.38441
0.384441
0.384472
0.384503
0.384534
0.384534
0.384565
0.384596
0.384627
0.384659
0.384659
0.38469
0.384721
0.384753
0.384784
0.384784
0.384815
0.384847
0.384878
0.384909
0.384909
0.384941
0.384972
0.385004
0.385036
0.385036
0.385067
0.385099
0.38513
0.385162
0.385162
0.385194
0.385225
0.385257
0.385289
0.385289
0.385321
0.385353
0.385385
0.385416
0.385416
0.385448
0.38548
0.385512
0.385544
0.385544
0.385576
0.385608
0.385641
0.385673
0.385673
0.385705
0.385737
0.385769
0.385802
0.385802
0.385834
0.385866
0.385898
0.385931
0.385931
0.385963
0.385996
0.386028
0.386061
0.386061
0.386093
0.386126
0.386158
0.386191
0.386191
0.386223
0.386256
0.386289
0.386321
0.386321
0.386354
0.386387
0.38642
0.386452
0.386452
0.386485
0.386518
0.386551
0.386584
0.386584
0.386617
0.38665
0.386683
0.386716
0.386716
0.386749
0.386782
0.386815
0.386848
0.386848
0.386882
0.386915
0.386948
0.386981
0.386981
0.387015
0.387048
0.387081
0.387115
0.387115
0.387148
0.387182
0.387215
0.387249
0.387249
0.387282
0.387316
0.387349
0.387383
0.387383
0.387416
0.38745
0.387484
0.387518
0.387518
0.387551
0.387585
0.387619
0.387653
0.387653
0.387687
0.387721
0.387754
0.387788
0.387788
0.387822
0.387856
0.38789
0.387925
0.387925
0.387959
0.387993
0.388027
0.388061
0.388061
0.388095
0.38813
0.388164
0.388198
0.388198
0.388232
0.388267
0.388301
0.388336
0.388336
0.38837
0.388405
0.388439
0.388474
0.388474
0.388508
0.388543
0.388577
0.388612
0.388612
0.388647
0.388681
0.388716
0.388751
0.388751
0.388786
0.38882
0.388855
0.38889
0.38889
0.388925
0.38896
0.388995
0.38903
0.38903
0.389065
0.3891
0.389135
0.38917
0.38917
0.389205
0.38924
0.389276
0.389311
0.389311
0.389346
0.389381
0.389417
0.389452
0.389452
0.389487
0.389523
0.389558
0.389593
0.389593
0.389629
0.389664
0.3897
0.389736
0.389736
0.389771
0.389807
0.389842
0.389878
0.389878
0.389914
0.389949
0.389985
0.390021
0.390021
0.390057
0.390093
0.390128
0.390164
0.390164
0.3902
0.390236
0.390272
0.390308
0.390308
0.390344
0.39038
0.390416
0.390453
0.390453
0.390489
0.390525
0.390561
0.390597
0.390597
0.390634
0.39067
0.390706
0.390743
0.390743
0.390779
0.390815
0.390852
0.390888
0.390888
0.390925
0.390961
0.390998
0.391034
0.391034
0.391071
0.391108
0.391144
0.391181
0.391181
0.391218
0.391254
0.391291
0.391328
0.391328
0.391365
0.391402
0.391439
0.391475
0.391475
0.391512
0.391549
0.391586
0.391623
0.391623
0.39166
0.391698
0.391735
0.391772
0.391772
0.391809
0.391846
0.391883
0.391921
0.391921
0.391958
0.391995
0.392033
0.39207
0.39207
0.392107
0.392145
0.392182
0.39222
0.39222
0.392257
0.392295
0.392332
0.39237
0.39237
0.392408
0.392445
0.392483
0.392521
0.392521
0.392558
0.392596
0.392634
0.392672
0.392672
0.39271
0.392747
0.392785
0.392823
0.392823
0.392861
0.392899
0.392937
0.392975
0.392975
0.393013
0.393051
0.39309
0.393128
0.393128
0.393166
0.393204
0.393242
0.393281
0.393281
0.393319
0.393357
0.393396
0.393434
0.393434
0.393473
0.393511
0.393549
0.393588
0.393588
0.393626
0.393665
0.393704
0.393742
0.393742
0.393781
0.39382
0.393858
0.393897
0.393897
0.393936
0.393975
0.394013
0.394052
0.394052
0.394091
0.39413
0.394169
0.394208
0.394208
0.394247
0.394286
0.394325
0.394364
0.394364
0.394403
0.394442
0.394481
0.39452
0.39452
0.39456
0.394599
0.394638
0.394677
0.394677
0.394717
0.394756
0.394796
0.394835
0.394835
0.394874
0.394914
0.394953
0.394993
0.394993
0.395032
0.395072
0.395112
0.395151
0.395151
0.395191
0.395231
0.39527
0.39531
0.39531
0.39535
0.39539
0.395429
0.395469
0.395469
0.395509
0.395549
0.395589
0.395629
0.395629
0.395669
0.395709
0.395749
0.395789
0.395789
0.395829
0.395869
0.39591
0.39595
0.39595
0.39599
0.39603
0.396071
0.396111
0.396111
0.396151
0.396192
0.396232
0.396272
0.396272
0.396313
0.396353
0.396394
0.396434
0.396434
0.396475
0.396516
0.396556
0.396597
0.396597
0.396638
0.396678
0.396719
0.39676
0.39676
0.396801
0.396841
0.396882
0.396923
0.396923
0.396964
0.397005
0.397046
0.397087
0.397087
0.397128
0.397169
0.39721
0.397251
0.397251
0.397292
0.397333
0.397375
0.397416
0.397416
0.397457
0.397498
0.39754
0.397581
0.397581
0.397622
0.397664
0.397705
0.397747
0.397747
0.397788
0.397829
0.397871
0.397913
0.397913
0.397954
0.397996
0.398037
0.398079
0.398079
0.398121
0.398162
0.398204
0.398246
0.398246
0.398288
0.39833
0.398371
0.398413
0.398413
0.398455
0.398497
0.398539
0.398581
0.398581
0.398623
0.398665
0.398707
0.39875
0.39875
0.398792
0.398834
0.398876
0.398918
0.398918
0.398961
0.399003
0.399045
0.399087
0.399087
0.39913
0.399172
0.399215
0.399257
0.399257
0.3993
0.399342
0.399385
0.399427
0.399427
0.39947
0.399512
0.399555
0.399598
0.399598
0.39964
0.399683
0.399726
0.399769
0.399769
0.399812
0.399854
0.399897
0.39994
0.39994
0.399983
0.400026
0.400069
0.400112
0.400112
0.400155
0.400198
0.400241
0.400284
0.400284
0.400328
0.400371
0.400414
0.400457
0.400457
0.4005
0.400544
0.400587
0.40063
0.40063
0.400674
0.400717
0.400761
0.400804
0.400804
0.400848
0.400891
0.400935
0.400978
0.400978
0.401022
0.401065
0.401109
0.401153
0.401153
0.401197
0.40124
0.401284
0.401328
0.401328
0.401372
0.401416
0.401459
0.401503
0.401503
0.401547
0.401591
0.401635
0.401679
0.401679
0.401723
0.401767
0.401812
0.401856
0.401856
0.4019
0.401944
0.401988
0.402033
0.402033
0.402077
0.402121
0.402165
0.40221
0.40221
0.402254
0.402299
0.402343
0.402388
0.402388
0.402432
0.402477
0.402521
0.402566
0.402566
0.40261
0.402655
0.4027
0.402744
0.402744
0.402789
0.402834
0.402879
0.402923
0.402923
0.402968
0.403013
0.403058
0.403103
0.403103
0.403148
0.403193
0.403238
0.403283
0.403283
0.403328
0.403373
0.403418
0.403463
0.403463
0.403508
0.403554
0.403599
0.403644
0.403644
0.403689
0.403735
0.40378
0.403825
0.403825
0.403871
0.403916
0.403962
0.404007
0.404007
0.404053
0.404098
0.404144
0.404189
0.404189
0.404235
0.404281
0.404326
0.404372
0.404372
0.404418
0.404464
0.404509
0.404555
0.404555
0.404601
0.404647
0.404693
0.404739
0.404739
0.404785
0.404831
0.404877
0.404923
0.404923
0.404969
0.405015
0.405061
0.405107
0.405107
0.405153
0.4052
0.405246
0.405292
0.405292
0.405338
0.405385
0.405431
0.405477
0.405477
0.405524
0.40557
0.405617
0.405663
0.405663
0.40571
0.405756
0.405803
0.405849
0.405849
0.405896
0.405943
0.405989
0.406036
0.406036
0.406083
0.40613
0.406176
0.406223
0.406223
0.40627
0.406317
0.406364
0.406411
0.406411
0.406458
0.406505
0.406552
0.406599
0.406599
0.406646
0.406693
0.40674
0.406787
0.406787
0.406835
0.406882
0.406929
0.406976
0.406976
0.407024
0.407071
0.407118
0.407166
0.407166
0.407213
0.40726
0.407308
0.407355
0.407355
0.407403
0.40745
0.407498
0.407546
0.407546
0.407593
0.407641
0.407689
0.407736
0.407736
0.407784
0.407832
0.40788
0.407928
0.407928
0.407975
0.408023
0.408071
0.408119
0.408119
0.408167
0.408215
0.408263
0.408311
0.408311
0.408359
0.408407
0.408455
0.408504
0.408504
0.408552
0.4086
0.408648
0.408697
0.408697
0.408745
0.408793
0.408842
0.40889
0.40889
0.408938
0.408987
0.409035
0.409084
0.409084
0.409132
0.409181
0.409229
0.409278
0.409278
0.409327
0.409375
0.409424
0.409473
0.409473
0.409521
0.40957
0.409619
0.409668
0.409668
0.409717
0.409766
0.409814
0.409863
0.409863
0.409912
0.409961
0.41001
0.410059
0.410059
0.410109
0.410158
0.410207
0.410256
0.410256
0.410305
0.410354
0.410404
0.410453
0.410453
0.410502
0.410552
0.410601
0.41065
0.41065
0.4107
0.410749
0.410799
0.410848
0.410848
0.410898
0.410947
0.410997
0.411046
0.411046
0.411096
0.411146
0.411195
0.411245
0.411245
0.411295
0.411345
0.411394
0.411444
0.411444
0.411494
0.411544
0.411594
0.411644
0.411644
0.411694
0.411744
0.411794
0.411844
0.411844
0.411894
0.411944
0.411994
0.412044
0.412044
0.412094
0.412145
0.412195
0.412245
0.412245
0.412296
0.412346
0.412396
0.412447
0.412447
0.412497
0.412547
0.412598
0.412648
0.412648
0.412699
0.412749
0.4128
0.412851
0.412851
0.412901
0.412952
0.413003
0.413053
0.413053
0.413104
0.413155
0.413206
0.413257
0.413257
0.413307
0.413358
0.413409
0.41346
0.41346
0.413511
0.413562
0.413613
0.413664
0.413664
0.413715
0.413766
0.413817
0.413869
0.413869
0.41392
0.413971
0.414022
0.414074
0.414074
0.414125
0.414176
0.414228
0.414279
0.414279
0.41433
0.414382
0.414433
0.414485
0.414485
0.414536
0.414588
0.414639
0.414691
0.414691
0.414743
0.414794
0.414846
0.414898
0.414898
0.414949
0.415001
0.415053
0.415105
0.415105
0.415157
0.415208
0.41526
0.415312
0.415312
0.415364
0.415416
0.415468
0.41552
0.41552
0.415572
0.415625
0.415677
0.415729
0.415729
0.415781
0.415833
0.415885
0.415938
0.415938
0.41599
0.416042
0.416095
0.416147
0.416147
0.416199
0.416252
0.416304
0.416357
0.416357
0.416409
0.416462
0.416514
0.416567
0.416567
0.41662
0.416672
0.416725
0.416778
0.416778
0.41683
0.416883
0.416936
0.416989
0.416989
0.417042
0.417095
0.417147
0.4172
0.4172
0.417253
0.417306
0.417359
0.417412
0.417412
0.417465
0.417519
0.417572
0.417625
0.417625
0.417678
0.417731
0.417784
0.417838
0.417838
0.417891
0.417944
0.417998
0.418051
0.418051
0.418104
0.418158
0.418211
0.418265
0.418265
0.418318
0.418372
0.418425
0.418479
0.418479
0.418533
0.418586
0.41864
0.418694
0.418694
0.418747
0.418801
0.418855
0.418909
0.418909
0.418963
0.419016
0.41907
0.419124
0.419124
0.419178
0.419232
0.419286
0.41934
0.41934
0.419394
0.419448
0.419502
0.419557
0.419557
0.419611
0.419665
0.419719
0.419773
0.419773
0.419828
0.419882
0.419936
0.419991
0.419991
0.420045
0.420099
0.420154
0.420208
0.420208
0.420263
0.420317
0.420372
0.420427
0.420427
0.420481
0.420536
0.42059
0.420645
0.420645
0.4207
0.420755
0.420809
0.420864
0.420864
0.420919
0.420974
0.421029
0.421084
0.421084
0.421139
0.421194
0.421249
0.421304
0.421304
0.421359
0.421414
0.421469
0.421524
0.421524
0.421579
0.421634
0.42169
0.421745
0.421745
0.4218
0.421855
0.421911
0.421966
0.421966
0.422021
0.422077
0.422132
0.422188
0.422188
0.422243
0.422299
0.422354
0.42241
0.42241
0.422465
0.422521
0.422577
0.422632
0.422632
0.422688
0.422744
0.4228
0.422855
0.422855
0.422911
0.422967
0.423023
0.423079
0.423079
0.423135
0.423191
0.423247
0.423303
0.423303
0.423359
0.423415
0.423471
0.423527
0.423527
0.423583
0.423639
0.423696
0.423752
0.423752
0.423808
0.423864
0.423921
0.423977
0.423977
0.424033
0.42409
0.424146
0.424203
0.424203
0.424259
0.424316
0.424372
0.424429
0.424429
0.424485
0.424542
0.424599
0.424655
0.424655
0.424712
0.424769
0.424825
0.424882
0.424882
0.424939
0.424996
0.425053
0.42511
0.42511
0.425166
0.425223
0.42528
0.425337
0.425337
0.425394
0.425451
0.425508
0.425566
0.425566
0.425623
0.42568
0.425737
0.425794
0.425794
0.425852
0.425909
0.425966
0.426023
0.426023
0.426081
0.426138
0.426196
0.426253
0.426253
0.42631
0.426368
0.426425
0.426483
0.426483
0.426541
0.426598
0.426656
0.426713
0.426713
0.426771
0.426829
0.426887
0.426944
0.426944
0.427002
0.42706
0.427118
0.427176
0.427176
0.427234
0.427292
0.427349
0.427407
0.427407
0.427465
0.427523
0.427582
0.42764
0.42764
0.427698
0.427756
0.427814
0.427872
0.427872
0.427931
0.427989
0.428047
0.428105
0.428105
0.428164
0.428222
0.42828
0.428339
0.428339
0.428397
0.428456
0.428514
0.428573
0.428573
0.428631
0.42869
0.428749
0.428807
0.428807
0.428866
0.428925
0.428983
0.429042
0.429042
0.429101
0.42916
0.429218
0.429277
0.429277
0.429336
0.429395
0.429454
0.429513
0.429513
0.429572
0.429631
0.42969
0.429749
0.429749
0.429808
0.429867
0.429927
0.429986
0.429986
0.430045
0.430104
0.430163
0.430223
0.430223
0.430282
0.430341
0.430401
0.43046
0.43046
0.43052
0.430579
0.430639
0.430698
0.430698
0.430758
0.430817
0.430877
0.430936
0.430936
0.430996
0.431056
0.431115
0.431175
0.431175
0.431235
0.431295
0.431354
0.431414
0.431414
0.431474
0.431534
0.431594
0.431654
0.431654
0.431714
0.431774
0.431834
0.431894
0.431894
0.431954
0.432014
0.432074
0.432134
0.432134
0.432195
0.432255
0.432315
0.432375
0.432375
0.432436
0.432496
0.432556
0.432617
0.432617
0.432677
0.432738
0.432798
0.432859
0.432859
0.432919
0.43298
0.43304
0.433101
0.433101
0.433161
0.433222
0.433283
0.433343
0.433343
0.433404
0.433465
0.433526
0.433587
0.433587
0.433647
0.433708
0.433769
0.43383
0.43383
0.433891
0.433952
0.434013
0.434074
0.434074
0.434135
0.434196
0.434257
0.434318
0.434318
0.43438
0.434441
0.434502
0.434563
0.434563
0.434625
0.434686
0.434747
0.434809
0.434809
0.43487
0.434931
0.434993
0.435054
0.435054
0.435116
0.435177
0.435239
0.4353
0.4353
0.435362
0.435424
0.435485
0.435547
0.435547
0.435609
0.43567
0.435732
0.435794
0.435794
0.435856
0.435918
0.43598
0.436042
0.436042
0.436103
0.436165
0.436227
0.436289
0.436289
0.436351
0.436413
0.436476
0.436538
0.436538
0.4366
0.436662
0.436724
0.436786
0.436786
0.436849
0.436911
0.436973
0.437036
0.437036
0.437098
0.43716
0.437223
0.437285
0.437285
0.437348
0.43741
0.437473
0.437535
0.437535
0.437598
0.437661
0.437723
0.437786
0.437786
0.437849
0.437911
0.437974
0.438037
0.438037
0.4381
0.438162
0.438225
0.438288
0.438288
0.438351
0.438414
0.438477
0.43854
0.43854
0.438603
0.438666
0.438729
0.438792
0.438792
0.438855
0.438918
0.438982
0.439045
0.439045
0.439108
0.439171
0.439235
0.439298
0.439298
0.439361
0.439425
0.439488
0.439551
0.439551
0.439615
0.439678
0.439742
0.439805
0.439805
0.439869
0.439932
0.439996
0.44006
0.44006
0.440123
0.440187
0.440251
0.440315
0.440315
0.440378
0.440442
0.440506
0.44057
0.44057
0.440634
0.440698
0.440762
0.440825
0.440825
0.440889
0.440953
0.441018
0.441082
0.441082
0.441146
0.44121
0.441274
0.441338
0.441338
0.441402
0.441467
0.441531
0.441595
0.441595
0.441659
0.441724
0.441788
0.441853
0.441853
0.441917
0.441981
0.442046
0.44211
0.44211
0.442175
0.442239
0.442304
0.442369
0.442369
0.442433
0.442498
0.442563
0.442627
0.442627
0.442692
0.442757
0.442822
0.442887
0.442887
0.442951
0.443016
0.443081
0.443146
0.443146
0.443211
0.443276
0.443341
0.443406
0.443406
0.443471
0.443536
0.443601
0.443667
0.443667
0.443732
0.443797
0.443862
0.443927
0.443927
0.443993
0.444058
0.444123
0.444189
0.444189
0.444254
0.44432
0.444385
0.44445
0.44445
0.444516
0.444581
0.444647
0.444713
0.444713
0.444778
0.444844
0.44491
0.444975
0.444975
0.445041
0.445107
0.445172
0.445238
0.445238
0.445304
0.44537
0.445436
0.445502
0.445502
0.445568
0.445634
0.4457
0.445766
0.445766
0.445832
0.445898
0.445964
0.44603
0.44603
0.446096
0.446162
0.446228
0.446295
0.446295
0.446361
0.446427
0.446493
0.44656
0.44656
0.446626
0.446693
0.446759
0.446825
0.446825
0.446892
0.446958
0.447025
0.447091
0.447091
0.447158
0.447225
0.447291
0.447358
0.447358
0.447425
0.447491
0.447558
0.447625
0.447625
0.447692
0.447758
0.447825
0.447892
0.447892
0.447959
0.448026
0.448093
0.44816
0.44816
0.448227
0.448294
0.448361
0.448428
0.448428
0.448495
0.448562
0.44863
0.448697
0.448697
0.448764
0.448831
0.448899
0.448966
0.448966
0.449033
0.449101
0.449168
0.449235
0.449235
0.449303
0.44937
0.449438
0.449505
0.449505
0.449573
0.44964
0.449708
0.449776
0.449776
0.449843
0.449911
0.449979
0.450046
0.450046
0.450114
0.450182
0.45025
0.450318
0.450318
0.450385
0.450453
0.450521
0.450589
0.450589
0.450657
0.450725
0.450793
0.450861
0.450861
0.450929
0.450997
0.451066
0.451134
0.451134
0.451202
0.45127
0.451338
0.451407
0.451407
0.451475
0.451543
0.451612
0.45168
0.45168
0.451748
0.451817
0.451885
0.451954
0.451954
0.452022
0.452091
0.452159
0.452228
0.452228
0.452297
0.452365
0.452434
0.452503
0.452503
0.452571
0.45264
0.452709
0.452778
0.452778
0.452847
0.452915
0.452984
0.453053
0.453053
0.453122
0.453191
0.45326
0.453329
0.453329
0.453398
0.453467
0.453536
0.453606
0.453606
0.453675
0.453744
0.453813
0.453882
0.453882
0.453952
0.454021
0.45409
0.45416
0.45416
0.454229
0.454298
0.454368
0.454437
0.454437
0.454507
0.454576
0.454646
0.454715
0.454715
0.454785
0.454854
0.454924
0.454994
0.454994
0.455063
0.455133
0.455203
0.455273
0.455273
0.455342
0.455412
0.455482
0.455552
0.455552
0.455622
0.455692
0.455762
0.455832
0.455832
0.455902
0.455972
0.456042
0.456112
0.456112
0.456182
0.456252
0.456322
0.456393
0.456393
0.456463
0.456533
0.456603
0.456674
0.456674
0.456744
0.456814
0.456885
0.456955
0.456955
0.457026
0.457096
0.457167
0.457237
0.457237
0.457308
0.457378
0.457449
0.45752
0.45752
0.45759
0.457661
0.457732
0.457802
0.457802
0.457873
0.457944
0.458015
0.458086
0.458086
0.458156
0.458227
0.458298
0.458369
0.458369
0.45844
0.458511
0.458582
0.458653
0.458653
0.458724
0.458795
0.458867
0.458938
0.458938
0.459009
0.45908
0.459151
0.459223
0.459223
0.459294
0.459365
0.459437
0.459508
0.459508
0.459579
0.459651
0.459722
0.459794
0.459794
0.459865
0.459937
0.460008
0.46008
0.46008
0.460152
0.460223
0.460295
0.460367
0.460367
0.460438
0.46051
0.460582
0.460654
0.460654
0.460726
0.460797
0.460869
0.460941
0.460941
0.461013
0.461085
0.461157
0.461229
0.461229
0.461301
0.461373
0.461445
0.461517
0.461517
0.46159
0.461662
0.461734
0.461806
0.461806
0.461878
0.461951
0.462023
0.462095
0.462095
0.462168
0.46224
0.462313
0.462385
0.462385
0.462457
0.46253
0.462602
0.462675
0.462675
0.462748
0.46282
0.462893
0.462966
0.462966
0.463038
0.463111
0.463184
0.463256
0.463256
0.463329
0.463402
0.463475
0.463548
0.463548
0.463621
0.463694
0.463767
0.46384
0.46384
0.463913
0.463986
0.464059
0.464132
0.464132
0.464205
0.464278
0.464351
0.464424
0.464424
0.464498
0.464571
0.464644
0.464717
0.464717
0.464791
0.464864
0.464937
0.465011
0.465011
0.465084
0.465158
0.465231
0.465305
0.465305
0.465378
0.465452
0.465525
0.465599
0.465599
0.465673
0.465746
0.46582
0.465894
0.465894
0.465967
0.466041
0.466115
0.466189
0.466189
0.466263
0.466337
0.466411
0.466484
0.466484
0.466558
0.466632
0.466706
0.46678
0.46678
0.466855
0.466929
0.467003
0.467077
0.467077
0.467151
0.467225
0.4673
0.467374
0.467374
0.467448
0.467522
0.467597
0.467671
0.467671
0.467745
0.46782
0.467894
0.467969
0.467969
0.468043
0.468118
0.468192
0.468267
0.468267
0.468342
0.468416
0.468491
0.468566
0.468566
0.46864
0.468715
0.46879
0.468865
0.468865
0.468939
0.469014
0.469089
0.469164
0.469164
0.469239
0.469314
0.469389
0.469464
0.469464
0.469539
0.469614
0.469689
0.469764
0.469764
0.469839
0.469914
0.46999
0.470065
0.470065
0.47014
0.470215
0.470291
0.470366