<?xml version="1.0"?>
<VTKFile type="UnstructuredGrid" version="0.1" byte_order="LittleEndian">
<UnstructuredGrid>
<Piece NumberOfPoints="5000" NumberOfCells="4000">
<PointData Scalars="Reaction 0">
<DataArray type="Float32" Name="Reaction 0" format="ascii">
0.494322
0.494322
0.494322
0.494322
0.494322
0.494322
0.494323
0.494323
0.494323
0.494323
0.494323
0.494323
0.494324
0.494324
0.494325
0.494325
0.494325
0.494325
0.494326
0.494326
0.494326
0.494327
0.494328
0.494328
0.494329
0.494329
0.494329
0.49433
0.494331
0.494332
0.494332
0.494333
0.494333
0.494334
0.494335
0.494335
0.494336
0.494337
0.494338
0.494339
0.494339
0.49434
0.494341
0.494343
0.494344
0.494344
0.494345
0.494346
0.494348
0.494349
0.494349
0.49435
0.494352
0.494353
0.494354
0.494354
0.494356
0.494357
0.494359
0.494361
0.494361
0.494362
0.494364
0.494366
0.494367
0.494367
0.494369
0.494371
0.494373
0.494375
0.494375
0.494376
0.494378
0.49438
0.494382
0.494382
0.494384
0.494386
0.494388
0.494391
0.494391
0.494393
0.494395
0.494397
0.494399
0.494399
0.494402
0.494404
0.494406
0.494409
0.494409
0.494411
0.494414
0.494416
0.494419
0.494419
0.494421
0.494424
0.494426
0.494429
0.494429
0.494432
0.494435
0.494437
0.49444
0.49444
0.494443
0.494446
0.494449
0.494452
0.494452
0.494455
0.494458
0.494461
0.494464
0.494464
0.494467
0.49447
0.494473
0.494476
0.494476
0.494479
0.494483
0.494486
0.494489
0.494489
0.494493
0.494496
0.494499
0.494503
0.494503
0.494506
0.49451
0.494513
0.494517
0.494517
0.494521
0.494524
0.494528
0.494532
0.494532
0.494536
0.494539
0.494543
0.494547
0.494547
0.494551
0.494555
0.494559
0.494563
0.494563
0.494567
0.494571
0.494575
0.494579
0.494579
0.494583
0.494588
0.494592
0.494596
0.494596
0.4946
0.494605
0.494609
0.494613
0.494613
0.494618
0.494622
0.494627
0.494631
0.494631
0.494636
0.49464
0.494645
0.49465
0.49465
0.494654
0.494659
0.494664
0.494669
0.494669
0.494674
0.494678
0.494683
0.494688
0.494688
0.494693
0.494698
0.494703
0.494708
0.494708
0.494713
0.494719
0.494724
0.494729
0.494729
0.494734
0.494739
0.494745
0.49475
0.49475
0.494755
0.494761
0.494766
0.494772
0.494772
0.494777
0.494783
0.494788
0.494794
0.494794
0.4948
0.494805
0.494811
0.494817
0.494817
0.494823
0.494828
0.494834
0.49484
0.49484
0.494846
0.494852
0.494858
0.494864
0.494864
0.49487
0.494876
0.494882
0.494888
0.494888
0.494894
0.494901
0.494907
0.494913
0.494913
0.494919
0.494926
0.494932
0.494939
0.494939
0.494945
0.494951
0.494958
0.494964
0.494964
0.494971
0.494978
0.494984
0.494991
0.494991
0.494998
0.495004
0.495011
0.495018
0.495018
0.495025
0.495032
0.495039
0.495046
0.495046
0.495053
0.49506
0.495067
0.495074
0.495074
0.495081
0.495088
0.495095
0.495102
0.495102
0.49511
0.495117
0.495124
0.495132
0.495132
0.495139
0.495146
0.495154
0.495161
0.495161
0.495169
0.495176
0.495184
0.495191
0.495191
0.495199
0.495207
0.495215
0.495222
0.495222
0.49523
0.495238
0.495246
0.495254
0.495254
0.495262
0.495269
0.495277
0.495285
0.495285
0.495294
0.495302
0.49531
0.495318
0.495318
0.495326
0.495334
0.495343
0.495351
0.495351
0.495359
0.495367
0.495376
0.495384
0.495384
0.495393
0.495401
0.49541
0.495418
0.495418
0.495427
0.495436
0.495444
0.495453
0.495453
0.495462
0.49547
0.495479
0.495488
0.495488
0.495497
0.495506
0.495515
0.495524
0.495524
0.495533
0.495542
0.495551
0.49556
0.49556
0.495569
0.495578
0.495587
0.495596
0.495596
0.495606
0.495615
0.495624
0.495634
0.495634
0.495643
0.495652
0.495662
0.495671
0.495671
0.495681
0.495691
0.4957
0.49571
0.49571
0.495719
0.495729
0.495739
0.495749
0.495749
0.495758
0.495768
0.495778
0.495788
0.495788
0.495798
0.495808
0.495818
0.495828
0.495828
0.495838
0.495848
0.495858
0.495868
0.495868
0.495879
0.495889
0.495899
0.495909
0.495909
0.49592
0.49593
0.49594
0.495951
0.495951
0.495961
0.495972
0.495982
0.495993
0.495993
0.496004
0.496014
0.496025
0.496036
0.496036
0.496046
0.496057
0.496068
0.496079
0.496079
0.49609
0.496101
0.496111
0.496122
0.496122
0.496133
0.496145
0.496156
0.496167
0.496167
0.496178
0.496189
0.4962
0.496211
0.496211
0.496223
0.496234
0.496245
0.496257
0.496257
0.496268
0.49628
0.496291
0.496303
0.496303
0.496314
0.496326
0.496337
0.496349
0.496349
0.496361
0.496372
0.496384
0.496396
0.496396
0.496408
0.49642
0.496431
0.496443
0.496443
0.496455
0.496467
0.496479
0.496491
0.496491
0.496503
0.496516
0.496528
0.49654
0.49654
0.496552
0.496564
0.496577
0.496589
0.496589
0.496601
0.496614
0.496626
0.496639
0.496639
0.496651
0.496664
0.496676
0.496689
0.496689
0.496701
0.496714
0.496727
0.49674
0.49674
0.496752
0.496765
0.496778
0.496791
0.496791
0.496804
0.496817
0.49683
0.496843
0.496843
0.496856
0.496869
0.496882
0.496895
0.496895
0.496908
0.496921
0.496934
0.496948
0.496948
0.496961
0.496974
0.496988
0.497001
0.497001
0.497015
0.497028
0.497042
0.497055
0.497055
0.497069
0.497082
0.497096
0.49711
0.49711
0.497123
0.497137
0.497151
0.497165
0.497165
0.497178
0.497192
0.497206
0.49722
0.49722
0.497234
0.497248
0.497262
0.497276
0.497276
0.49729
0.497305
0.497319
0.497333
0.497333
0.497347
0.497361
0.497376
0.49739
0.49739
0.497404
0.497419
0.497433
0.497448
0.497448
0.497462
0.497477
0.497491
0.497506
0.497506
0.497521
0.497535
0.49755
0.497565
0.497565
0.49758
0.497595
0.497609
0.497624
0.497624
0.497639
0.497654
0.497669
0.497684
0.497684
0.497699
0.497714
0.497729
0.497745
0.497745
0.49776
0.497775
0.49779
0.497806
0.497806
0.497821
0.497836
0.497852
0.497867
0.497867
0.497883
0.497898
0.497914
0.497929
0.497929
0.497945
0.49796
0.497976
0.497992
0.497992
0.498008
0.498023
0.498039
0.498055
0.498055
0.498071
0.498087
0.498103
0.498119
0.498119
0.498135
0.498151
0.498167
0.498183
0.498183
0.498199
0.498215
0.498231
0.498248
0.498248
0.498264
0.49828
0.498297
0.498313
0.498313
0.498329
0.498346
0.498362
0.498379
0.498379
0.498395
0.498412
0.498429
0.498445
0.498445
0.498462
0.498479
0.498495
0.498512
0.498512
0.498529
0.498546
0.498563
0.49858
0.49858
0.498597
0.498614
0.498631
0.498648
0.498648
0.498665
0.498682
0.498699
0.498716
0.498716
0.498734
0.498751
0.498768
0.498785
0.498785
0.498803
0.49882
0.498838
0.498855
0.498855
0.498873
0.49889
0.498908
0.498925
0.498925
0.498943
0.498961
0.498978
0.498996
0.498996
0.499014
0.499032
0.49905
0.499067
0.499067
0.499085
0.499103
0.499121
0.499139
0.499139
0.499157
0.499175
0.499194
0.499212
0.499212
0.49923
0.499248
0.499266
0.499285
0.499285
0.499303
0.499321
0.49934
0.499358
0.499358
0.499377
0.499395
0.499414
0.499432
0.499432
0.499451
0.499469
0.499488
0.499507
0.499507
0.499525
0.499544
0.499563
0.499582
0.499582
0.499601
0.49962
0.499639
0.499658
0.499658
0.499677
0.499696
0.499715
0.499734
0.499734
0.499753
0.499772
0.499791
0.499811
0.499811
0.49983
0.499849
0.499868
0.499888
0.499888
0.499907
0.499927
0.499946
0.499966
0.499966
0.499985
0.500005
0.500024
0.500044
0.500044
0.500064
0.500084
0.500103
0.500123
0.500123
0.500143
0.500163
0.500183
0.500203
0.500203
0.500223
0.500243
0.500263
0.500283
0.500283
0.500303
0.500323
0.500343
0.500363
0.500363
0.500383
0.500404
0.500424
0.500444
0.500444
0.500465
0.500485
0.500506
0.500526
0.500526
0.500547
0.500567
0.500588
0.500608
0.500608
0.500629
0.50065
0.50067
0.500691
0.500691
0.500712
0.500733
0.500753
0.500774
0.500774
0.500795
0.500816
0.500837
0.500858
0.500858
0.500879
0.5009
0.500922
0.500943
0.500943
0.500964
0.500985
0.501006
0.501028
0.501028
0.501049
0.50107
0.501092
0.501113
0.501113
0.501135
0.501156
0.501178
0.501199
0.501199
0.501221
0.501243
0.501264
0.501286
0.501286
0.501308
0.501329
0.501351
0.501373
0.501373
0.501395
0.501417
0.501439
0.501461
0.501461
0.501483
0.501505
0.501527
0.501549
0.501549
0.501571
0.501593
0.501616
0.501638
0.501638
0.50166
0.501683
0.501705
0.501727
0.501727
0.50175
0.501772
0.501795
0.501817
0.501817
0.50184
0.501862
0.501885
0.501908
0.501908
0.50193
0.501953
0.501976
0.501999
0.501999
0.502022
0.502044
0.502067
0.50209
0.50209
0.502113
0.502136
0.502159
0.502182
0.502182
0.502206
0.502229
0.502252
0.502275
0.502275
0.502298
0.502322
0.502345
0.502368
0.502368
0.502392
0.502415
0.502439
0.502462
0.502462
0.502486
0.502509
0.502533
0.502557
0.502557
0.50258
0.502604
0.502628
0.502651
0.502651
0.502675
0.502699
0.502723
0.502747
0.502747
0.502771
0.502795
0.502819
0.502843
0.502843
0.502867
0.502891
0.502915
0.502939
0.502939
0.502964
0.502988
0.503012
0.503037
0.503037
0.503061
0.503085
0.50311
0.503134
0.503134
0.503159
0.503183
0.503208
0.503232
0.503232
0.503257
0.503282
0.503306
0.503331
0.503331
0.503356
0.503381
0.503406
0.50343
0.50343
0.503455
0.50348
0.503505
0.50353
0.50353
0.503555
0.503581
0.503606
0.503631
0.503631
0.503656
0.503681
0.503706
0.503732
0.503732
0.503757
0.503782
0.503808
0.503833
0.503833
0.503859
0.503884
0.50391
0.503935
0.503935
0.503961
0.503987
0.504012
0.504038
0.504038
0.504064
0.50409
0.504115
0.504141
0.504141
0.504167
0.504193
0.504219
0.504245
0.504245
0.504271
0.504297
0.504323
0.504349
0.504349
0.504376
0.504402
0.504428
0.504454
0.504454
0.504481
0.504507
0.504533
0.50456
0.50456
0.504586
0.504613
0.504639
0.504666
0.504666
0.504692
0.504719
0.504746
0.504772
0.504772
0.504799
0.504826
0.504852
0.504879
0.504879
0.504906
0.504933
0.50496
0.504987
0.504987
0.505014
0.505041
0.505068
0.505095
0.505095
0.505122
0.50515
0.505177
0.505204
0.505204
0.505231
0.505259
0.505286
0.505313
0.505313
0.505341
0.505368
0.505396
0.505423
0.505423
0.505451
0.505478
0.505506
0.505534
0.505534
0.505561
0.505589
0.505617
0.505645
0.505645
0.505673
0.5057
0.505728
0.505756
0.505756
0.505784
0.505812
0.50584
0.505868
0.505868
0.505897
0.505925
0.505953
0.505981
0.505981
0.506009
0.506038
0.506066
0.506094
0.506094
0.506123
0.506151
0.50618
0.506208
0.506208
0.506237
0.506265
0.506294
0.506323
0.506323
0.506351
0.50638
0.506409
0.506437
0.506437
0.506466
0.506495
0.506524
0.506553
0.506553
0.506582
0.506611
0.50664
0.506669
0.506669
0.506698
0.506727
0.506756
0.506786
0.506786
0.506815
0.506844
0.506873
0.506903
0.506903
0.506932
0.506962
0.506991
0.507021
0.507021
0.50705
0.50708
0.507109
0.507139
0.507139
0.507169
0.507198
0.507228
0.507258
0.507258
0.507288
0.507317
0.507347
0.507377
0.507377
0.507407
0.507437
0.507467
0.507497
0.507497
0.507527
0.507557
0.507588
0.507618
0.507618
0.507648
0.507678
0.507708
0.507739
0.507739
0.507769
0.5078
0.50783
0.507861
0.507861
0.507891
0.507922
0.507952
0.507983
0.507983
0.508013
0.508044
0.508075
0.508106
0.508106
0.508136
0.508167
0.508198
0.508229
0.508229
0.50826
0.508291
0.508322
0.508353
0.508353
0.508384
0.508415
0.508446
0.508477
0.508477
0.508509
0.50854
0.508571
0.508602
0.508602
0.508634
0.508665
0.508697
0.508728
0.508728
0.50876
0.508791
0.508823
0.508854
0.508854
0.508886
0.508918
0.508949
0.508981
0.508981
0.509013
0.509045
0.509077
0.509108
0.509108
0.50914
0.509172
0.509204
0.509236
0.509236
0.509268
0.509301
0.509333
0.509365
0.509365
0.509397
0.509429
0.509462
0.509494
0.509494
0.509526
0.509559
0.509591
0.509623
0.509623
0.509656
0.509688
0.509721
0.509754
0.509754
0.509786
0.509819
0.509852
0.509884
0.509884
0.509917
0.50995
0.509983
0.510016
0.510016
0.510049
0.510082
0.510115
0.510148
0.510148
0.510181
0.510214
0.510247
0.51028
0.51028
0.510313
0.510346
0.51038
0.510413
0.510413
0.510446
0.51048
0.510513
0.510547
0.510547
0.51058
0.510614
0.510647
0.510681
0.510681
0.510714
0.510748
0.510782
0.510816
0.510816
0.510849
0.510883
0.510917
0.510951
0.510951
0.510985
0.511019
0.511053
0.511087
0.511087
0.511121
0.511155
0.511189
0.511223
0.511223
0.511257
0.511292
0.511326
0.51136
0.51136
0.511395
0.511429
0.511463
0.511498
0.511498
0.511532
0.511567
0.511601
0.511636
0.511636
0.511671
0.511705
0.51174
0.511775
0.511775
0.51181
0.511844
0.511879
0.511914
0.511914
0.511949
0.511984
0.512019
0.512054
0.512054
0.512089
0.512124
0.512159
0.512194
0.512194
0.51223
0.512265
0.5123
0.512335
0.512335
0.512371
0.512406
0.512442
0.512477
0.512477
0.512513
0.512548
0.512584
0.512619
0.512619
0.512655
0.512691
0.512726
0.512762
0.512762
0.512798
0.512834
0.512869
0.512905
0.512905
0.512941
0.512977
0.513013
0.513049
0.513049
0.513085
0.513121
0.513158
0.513194
0.513194
0.51323
0.513266
0.513302
0.513339
0.513339
0.513375
0.513412
0.513448
0.513484
0.513484
0.513521
0.513557
0.513594
0.513631
0.513631
0.513667
0.513704
0.513741
0.513777
0.513777
0.513814
0.513851
0.513888
0.513925
0.513925
0.513962
0.513999
0.514036
0.514073
0.514073
0.51411
0.514147
0.514184
0.514221
0.514221
0.514259
0.514296
0.514333
0.51437
0.51437
0.514408
0.514445
0.514483
0.51452
0.51452
0.514558
0.514595
0.514633
0.51467
0.51467
0.514708
0.514746
0.514783
0.514821
0.514821
0.514859
0.514897
0.514935
0.514973
0.514973
0.515011
0.515049
0.515087
0.515125
0.515125
0.515163
0.515201
0.515239
0.515277
0.515277
0.515315
0.515354
0.515392
0.51543
0.51543
0.515469
0.515507
0.515546
0.515584
0.515584
0.515623
0.515661
0.5157
0.515738
0.515738
0.515777
0.515816
0.515855
0.515893
0.515893
0.515932
0.515971
0.51601
0.516049
0.516049
0.516088
0.516127
0.516166
0.516205
0.516205
0.516244
0.516283
0.516322
0.516362
0.516362
0.516401
0.51644
0.51648
0.516519
0.516519
0.516558
0.516598
0.516637
0.516677
0.516677
0.516716
0.516756
0.516795
0.516835
0.516835
0.516875
0.516915
0.516954
0.516994
0.516994
0.517034
0.517074
0.517114
0.517154
0.517154
0.517194
0.517234
0.517274
0.517314
0.517314
0.517354
0.517394
0.517434
0.517475
0.517475
0.517515
0.517555
0.517596
0.517636
0.517636
0.517676
0.517717
0.517757
0.517798
0.517798
0.517839
0.517879
0.51792
0.51796
0.51796
0.518001
0.518042
0.518083
0.518124
0.518124
0.518164
0.518205
0.518246
0.518287
0.518287
0.518328
0.518369
0.51841
0.518452
0.518452
0.518493
0.518534
0.518575
0.518616
0.518616
0.518658
0.518699
0.518741
0.518782
0.518782
0.518823
0.518865
0.518906
0.518948
0.518948
0.51899
0.519031
0.519073
0.519115
0.519115
0.519156
0.519198
0.51924
0.519282
0.519282
0.519324
0.519366
0.519408
0.51945
0.51945
0.519492
0.519534
0.519576
0.519618
0.519618
0.51966
0.519703
0.519745
0.519787
0.519787
0.519829
0.519872
0.519914
0.519957
0.519957
0.519999
0.520042
0.520084
0.520127
0.520127
0.52017
0.520212
0.520255
0.520298
0.520298
0.52034
0.520383
0.520426
0.520469
0.520469
0.520512
0.520555
0.520598
0.520641
0.520641
0.520684
0.520727
0.52077
0.520814
0.520814
0.520857
0.5209
0.520943
0.520987
0.520987
0.52103
0.521074
0.521117
0.521161
0.521161
0.521204
0.521248
0.521291
0.521335
0.521335
0.521379
0.521422
0.521466
0.52151
0.52151
0.521554
0.521598
0.521641
0.521685
0.521685
0.521729
0.521773
0.521817
0.521862
0.521862
0.521906
0.52195
0.521994
0.522038
0.522038
0.522083
0.522127
0.522171
0.522216
0.522216
0.52226
0.522305
0.522349
0.522394
0.522394
0.522438
0.522483
0.522527
0.522572
0.522572
0.522617
0.522662
0.522706
0.522751
0.522751
0.522796
0.522841
0.522886
0.522931
0.522931
0.522976
0.523021
0.523066
0.523111
0.523111
0.523156
0.523202
0.523247
0.523292
0.523292
0.523338
0.523383
0.523428
0.523474
0.523474
0.523519
0.523565
0.52361
0.523656
0.523656
0.523702
0.523747
0.523793
0.523839
0.523839
0.523884
0.52393
0.523976
0.524022
0.524022
0.524068
0.524114
0.52416
0.524206
0.524206
0.524252
0.524298
0.524344
0.52439
0.52439
0.524437
0.524483
0.524529
0.524576
0.524576
0.524622
0.524668
0.524715
0.524761
0.524761
0.524808
0.524854
0.524901
0.524948
0.524948
0.524994
0.525041
0.525088
0.525135
0.525135
0.525181
0.525228
0.525275
0.525322
0.525322
0.525369
0.525416
0.525463
0.52551
0.52551
0.525558
0.525605
0.525652
0.525699
0.525699
0.525746
0.525794
0.525841
0.525889
0.525889
0.525936
0.525983
0.526031
0.526079
0.526079
0.526126
0.526174
0.526221
0.526269
0.526269
0.526317
0.526365
0.526412
0.52646
0.52646
0.526508
0.526556
0.526604
0.526652
0.526652
0.5267
0.526748
0.526796
0.526845
0.526845
0.526893
0.526941
0.526989
0.527038
0.527038
0.527086
0.527134
0.527183
0.527231
0.527231
0.52728
0.527328
0.527377
0.527426
0.527426
0.527474
0.527523
0.527572
0.52762
0.52762
0.527669
0.527718
0.527767
0.527816
0.527816
0.527865
0.527914
0.527963
0.528012
0.528012
0.528061
0.52811
0.528159
0.528209
0.528209
0.528258
0.528307
0.528357
0.528406
0.528406
0.528455
0.528505
0.528554
0.528604
0.528604
0.528653
0.528703
0.528753
0.528802
0.528802
0.528852
0.528902
0.528952
0.529002
0.529002
0.529051
0.529101
0.529151
0.529201
0.529201
0.529251
0.529301
0.529352
0.529402
0.529402
0.529452
0.529502
0.529552
0.529603
0.529603
0.529653
0.529703
0.529754
0.529804
0.529804
0.529855
0.529905
0.529956
0.530007
0.530007
0.530057
0.530108
0.530159
0.530209
0.530209
0.53026
0.530311
0.530362
0.530413
0.530413
0.530464
0.530515
0.530566
0.530617
0.530617
0.530668
0.530719
0.53077
0.530822
0.530822
0.530873
0.530924
0.530976
0.531027
0.531027
0.531078
0.53113
0.531181
0.531233
0.531233
0.531285
0.531336
0.531388
0.53144
0.53144
0.531491
0.531543
0.531595
0.531647
0.531647
0.531699
0.531751
0.531803
0.531855
0.531855
0.531907
0.531959
0.532011
0.532063
0.532063
0.532115
0.532167
0.53222
0.532272
0.532272
0.532324
0.532377
0.532429
0.532482
0.532482
0.532534
0.532587
0.532639
0.532692
0.532692
0.532745
0.532797
0.53285
0.532903
0.532903
0.532956
0.533009
0.533062
0.533114
0.533114
0.533167
0.53322
0.533274
0.533327
0.533327
0.53338
0.533433
0.533486
0.533539
0.533539
0.533593
0.533646
0.533699
0.533753
0.533753
0.533806
0.53386
0.533913
0.533967
0.533967
0.534021
0.534074
0.534128
0.534182
0.534182
0.534235
0.534289
0.534343
0.534397
0.534397
0.534451
0.534505
0.534559
0.534613
0.534613
0.534667
0.534721
0.534775
0.534829
0.534829
0.534884
0.534938
0.534992
0.535047
0.535047
0.535101
0.535155
0.53521
0.535264
0.535264
0.535319
0.535374
0.535428
0.535483
0.535483
0.535538
0.535592
0.535647
0.535702
0.535702
0.535757
0.535812
0.535867
0.535922
0.535922
0.535977
0.536032
0.536087
0.536142
0.536142
0.536197
0.536252
0.536308
0.536363
0.536363
0.536418
0.536474
0.536529
0.536585
0.536585
0.53664
0.536696
0.536751
0.536807
0.536807
0.536863
0.536918
0.536974
0.53703
0.53703
0.537086
0.537142
0.537197
0.537253
0.537253
0.537309
0.537365
0.537421
0.537478
0.537478
0.537534
0.53759
0.537646
0.537702
0.537702
0.537759
0.537815
0.537871
0.537928
0.537928
0.537984
0.538041
0.538097
0.538154
0.538154
0.53821
0.538267
0.538324
0.538381
0.538381
0.538437
0.538494
0.538551
0.538608
0.538608
0.538665
0.538722
0.538779
0.538836
0.538836
0.538893
0.53895
0.539007
0.539065
0.539065
0.539122
0.539179
0.539236
0.539294
0.539294
0.539351
0.539409
0.539466
0.539524
0.539524
0.539581
0.539639
0.539697
0.539754
0.539754
0.539812
0.53987
0.539928
0.539986
0.539986
0.540043
0.540101
0.540159
0.540217
0.540217
0.540275
0.540334
0.540392
0.54045
0.54045
0.540508
0.540566
0.540625
0.540683
0.540683
0.540741
0.5408
0.540858
0.540917
0.540917
0.540975
0.541034
0.541093
0.541151
0.541151
0.54121
0.541269
0.541327
0.541386
0.541386
0.541445
0.541504
0.541563
0.541622
0.541622
0.541681
0.54174
0.541799
0.541858
0.541858
0.541918
0.541977
0.542036
0.542095
0.542095
0.542155
0.542214
0.542274
0.542333
0.542333
0.542393
0.542452
0.542512
0.542571
0.542571
0.542631
0.542691
0.542751
0.54281
0.54281
0.54287
0.54293
0.54299
0.54305
0.54305
0.54311
0.54317
0.54323
0.54329
0.54329
0.54335
0.543411
0.543471
0.543531
0.543531
0.543591
0.543652
0.543712
0.543773
0.543773
0.543833
0.543894
0.543954
0.544015
0.544015
0.544076
0.544136
0.544197
0.544258
0.544258
0.544319
0.544379
0.54444
0.544501
0.544501
0.544562
0.544623
0.544684
0.544746
0.544746
0.544807
0.544868
0.544929
0.54499
0.54499
0.545052
0.545113
0.545174
0.545236
0.545236
0.545297
0.545359
0.54542
0.545482
0.545482
0.545544
0.545605
0.545667
0.545729
0.545729
0.545791
0.545853
0.545914
0.545976
0.545976
0.546038
0.5461
0.546162
0.546225
0.546225
0.546287
0.546349
0.546411
0.546473
0.546473
0.546536
0.546598
0.54666
0.546723
0.546723
0.546785
0.546848
0.54691
0.546973
0.546973
0.547036
0.547098
0.547161
0.547224
0.547224
0.547286
0.547349
0.547412
0.547475
0.547475
0.547538
0.547601
0.547664
0.547727
0.547727
0.54779
0.547854
0.547917
0.54798
0.54798
0.548043
0.548107
0.54817
0.548233
0.548233
0.548297
0.54836
0.548424
0.548488
0.548488
0.548551
0.548615
0.548679
0.548742
0.548742
0.548806
0.54887
0.548934
0.548998
0.548998
0.549062
0.549126
0.54919
0.549254
0.549254
0.549318
0.549382
0.549446
0.549511
0.549511
0.549575
0.549639
0.549704
0.549768
0.549768
0.549833
0.549897
0.549962
0.550026
0.550026
0.550091
0.550156
0.55022
0.550285
0.550285
0.55035
0.550415
0.55048
0.550545
0.550545
0.550609
0.550675
0.55074
0.550805
0.550805
0.55087
0.550935
0.551
0.551065
0.551065
0.551131
0.551196
0.551262
0.551327
0.551327
0.551392
0.551458
0.551524
0.551589
0.551589
0.551655
0.55172
0.551786
0.551852
0.551852
0.551918
0.551984
0.55205
0.552115
0.552115
0.552181
0.552247
0.552314
0.55238
0.55238
0.552446
0.552512
0.552578
0.552645
0.552645
0.552711
0.552777
0.552844
0.55291
0.55291
0.552977
0.553043
0.55311
0.553176
0.553176
0.553243
0.55331
0.553376
0.553443
0.553443
0.55351
0.553577
0.553644
0.553711
0.553711
0.553778
0.553845
0.553912
0.553979
0.553979
0.554046
0.554113
0.554181
0.554248
0.554248
0.554315
0.554383
0.55445
0.554518
0.554518
0.554585
0.554653
0.55472
0.554788
0.554788
0.554856
0.554923
0.554991
0.555059
0.555059
0.555127
0.555195
0.555263
0.555331
0.555331
0.555399
0.555467
0.555535
0.555603
0.555603
0.555671
0.555739
0.555808
0.555876
0.555876
0.555944
0.556013
0.556081
0.55615
0.55615
0.556218
0.556287
0.556356
0.556424
0.556424
0.556493
0.556562
0.55663
0.556699
0.556699
0.556768
0.556837
0.556906
0.556975
0.556975
0.557044
0.557113
0.557182
0.557252
0.557252
0.557321
0.55739
0.557459
0.557529
0.557529
0.557598
0.557668
0.557737
0.557807
0.557807
0.557876
0.557946
0.558016
0.558085
0.558085
0.558155
0.558225
0.558295
0.558365
0.558365
0.558434
0.558504
0.558574
0.558645
0.558645
0.558715
0.558785
0.558855
0.558925
0.558925
0.558995
0.559066
0.559136
0.559207
0.559207
0.559277
0.559347
0.559418
0.559489
0.559489
0.559559
0.55963
0.559701
0.559771
0.559771
0.559842
0.559913
0.559983
0.560053
0.560053
0.560121
0.56019
0.560258
0.560326
0.560326
0.560395
0.560463
0.560532
0.560601
0.560601
0.560669
0.560738
0.560807
0.560876
0.560876
0.560945
0.561013
0.561082
0.561151
0.561151
0.56122
0.561289
0.561357
0.561424
0.561424
0.561489
0.561555
0.561621
0.561687
0.561687
0.561753
0.561819
0.561885
0.561951
0.561951
0.562017
0.562083
0.562149
0.562215
0.562215
0.562281
0.562348
0.562414
0.56248
0.56248
0.562547
0.562612
0.562676
0.56274
0.56274
0.562803
0.562866
0.562929
0.562992
0.562992
0.563055
0.563118
0.563181
0.563245
0.563245
0.563308
0.563371
0.563434
0.563498
0.563498
0.563561
0.563624
0.563688
0.563751
0.563751
0.563814
0.563876
0.563937
0.563997
0.563997
0.564057
0.564117
0.564178
0.564238
0.564238
0.564298
0.564358
0.564419
0.564479
0.564479
0.564539
0.5646
0.56466
0.564721
0.564721
0.564781
0.564841
0.564902
0.564962
0.564962
0.565021
0.565079
0.565137
0.565194
0.565194
0.565252
0.565309
0.565366
0.565424
0.565424
0.565481
0.565539
0.565596
0.565654
0.565654
0.565712
0.565769
0.565827
0.565884
0.565884
0.565942
0.565999
0.566056
0.566113
0.566113
0.566168
0.566223
0.566278
0.566333
0.566333
0.566388
0.566442
0.566497
0.566552
0.566552
0.566607
0.566661
0.566716
0.566771
0.566771
0.566826
0.566881
0.566936
0.56699
0.56699
0.567045
0.567099
0.567152
0.567205
0.567205
0.567258
0.56731
0.567362
0.567414
0.567414
0.567466
0.567519
0.567571
0.567623
0.567623
0.567675
0.567727
0.56778
0.567832
0.567832
0.567884
0.567936
0.567988
0.56804
0.56804
0.568091
0.568142
0.568192
0.568242
0.568242
0.568292
0.568342
0.568391
0.568441
0.568441
0.56849
0.56854
0.56859
0.568639
0.568639
0.568689
0.568739
0.568789
0.568838
0.568838
0.568888
0.568937
0.568986
0.569035
0.569035
0.569083
0.56913
0.569178
0.569225
0.569225
0.569272
0.56932
0.569367
0.569414
0.569414
0.569461
0.569509
0.569556
0.569603
0.569603
0.569651
0.569698
0.569745
0.569792
0.569792
0.569839
0.569885
0.569931
0.569976
0.569976
0.570021
0.570066
0.570111
0.570156
0.570156
0.570201
0.570246
0.570291
0.570336
0.570336
0.570381
0.570426
0.570471
0.570516
0.570516
0.570561
0.570606
0.57065
0.570694
0.570694
0.570738
0.570781
0.570824
0.570867
0.570867
0.57091
0.570953
0.570995
0.571038
0.571038
0.571081
0.571124
0.571166
0.571209
0.571209
0.571252
0.571295
0.571337
0.57138
0.57138
0.571422
0.571464
0.571505
0.571547
0.571547
0.571588
0.571628
0.571669
0.57171
0.57171
0.57175
0.571791
0.571832
0.571872
0.571872
0.571913
0.571954
0.571994
0.572035
0.572035
0.572076
0.572116
0.572156
0.572196
0.572196
0.572235
0.572274
0.572313
0.572352
0.572352
0.572391
0.572429
0.572468
0.572507
0.572507
0.572545
0.572584
0.572623
0.572661
0.572661
0.5727
0.572738
0.572777
0.572815
0.572815
0.572853
0.572891
0.572928
0.572965
0.572965
0.573002
0.573039
0.573076
0.573113
0.573113
0.57315
0.573186
0.573223
0.57326
0.57326
0.573297
0.573333
0.57337
0.573407
0.573407
0.573443
0.573479
0.573515
0.573551
0.573551
0.573586
0.573622
0.573657
0.573692
0.573692
0.573727
0.573762
0.573797
0.573832
0.573832
0.573866
0.573901
0.573936
0.573971
0.573971
0.574006
0.574041
0.574075
0.574109
0.574109
0.574143
0.574177
0.574211
0.574244
0.574244
0.574278
0.574311
0.574344
0.574377
0.574377
0.574411
0.574444
0.574477
0.57451
0.57451
0.574543
0.574576
0.574609
0.574642
0.574642
0.574675
0.574707
0.574739
0.574771
0.574771
0.574803
0.574835
0.574867
0.574898
0.574898
0.57493
0.574961
0.574993
0.575024
0.575024
0.575056
0.575087
0.575119
0.57515
0.57515
0.575181
0.575212
0.575243
0.575274
0.575274
0.575304
0.575334
0.575365
0.575395
0.575395
0.575425
0.575455
0.575485
0.575515
0.575515
0.575545
0.575574
0.575604
0.575634
0.575634
0.575664
0.575694
0.575723
0.575752
0.575752
0.575782
0.575811
0.575839
0.575868
0.575868
0.575897
0.575925
0.575954
0.575982
0.575982
0.576011
0.576039
0.576067
0.576096
0.576096
0.576124
0.576152
0.576181
0.576209
0.576209
0.576236
0.576264
0.576292
0.576319
0.576319
0.576346
0.576374
0.576401
0.576428
0.576428
0.576455
0.576482
0.576509
0.576536
0.576536
0.576563
0.57659
0.576617
0.576643
0.576643
0.57667
0.576696
0.576723
0.576749
0.576749
0.576775
0.576801
0.576826
0.576852
0.576852
0.576878
0.576904
0.576929
0.576955
0.576955
0.576981
0.577006
0.577032
0.577057
0.577057
0.577083
0.577108
0.577133
0.577158
0.577158
0.577183
0.577207
0.577232
0.577256
0.577256
0.577281
0.577305
0.57733
0.577354
0.577354
0.577379
0.577403
0.577427
0.577452
0.577452
0.577476
0.5775
0.577524
0.577547
0.577547
0.577571
0.577595
0.577618
0.577641
0.577641
0.577665
0.577688
0.577711
0.577734
0.577734
0.577758
0.577781
0.577804
0.577827
0.577827
0.57785
0.577873
0.577896
0.577918
0.577918
0.577941
0.577963
0.577986
0.578008
0.578008
0.57803
0.578052
0.578074
0.578096
0.578096
0.578118
0.57814
0.578162
0.578184
0.578184
0.578206
0.578228
0.57825
0.578271
0.578271
0.578293
0.578314
0.578335
0.578356
0.578356
0.578378
0.578399
0.57842
0.578441
0.578441
0.578462
0.578483
0.578504
0.578524
0.578524
0.578545
0.578566
0.578587
0.578607
0.578607
0.578628
0.578648
0.578668
0.578688
0.578688
0.578708
0.578728
0.578748
0.578768
0.578768
0.578788
0.578808
0.578828
0.578848
0.578848
0.578868
0.578888
0.578907
0.578927
0.578927
0.578946
0.578966
0.578985
0.579004
0.579004
0.579023
0.579042
0.579061
0.57908
0.57908
0.579099
0.579118
0.579137
0.579156
0.579156
0.579175
0.579194
0.579212
0.579231
0.579231
0.57925
0.579268
0.579286
0.579305
0.579305
0.579323
0.579341
0.579359
0.579377
0.579377
0.579395
0.579413
0.579431
0.579449
0.579449
0.579467
0.579485
0.579503
0.57952
0.57952
0.579538
0.579556
0.579573
0.57959
0.57959
0.579608
0.579625
0.579642
0.57966
0.57966
0.579677
0.579694
0.579711
0.579728
0.579728
0.579745
0.579762
0.579779
0.579796
0.579796
0.579813
0.579829
0.579846
0.579862
0.579862
0.579879
0.579895
0.579912
0.579928
0.579928
0.579945
0.579961
0.579977
0.579993
0.579993
0.58001
0.580026
0.580042
0.580058
0.580058
0.580074
0.58009
0.580106
0.580121
0.580121
0.580137
0.580153
0.580168
0.580184
0.580184
0.580199
0.580215
0.580231
0.580246
0.580246
0.580261
0.580277
0.580292
0.580307
0.580307
0.580322
0.580338
0.580353
0.580368
0.580368
0.580383
0.580397
0.580412
0.580427
0.580427
0.580442
0.580457
0.580472
0.580486
0.580486
0.580501
0.580516
0.58053
0.580545
0.580545
0.580559
0.580573
0.580588
0.580602
0.580602
0.580616
0.58063
0.580645
0.580659
0.580659
0.580673
0.580687
0.580701
0.580715
0.580715
0.580729
0.580743
0.580757
0.58077
0.58077
0.580784
0.580798
0.580812
0.580825
0.580825
0.580839
0.580852
0.580866
0.580879
0.580879
0.580893
0.580906
0.580919
0.580933
0.580933
0.580946
0.580959
0.580972
0.580986
0.580986
0.580999
0.581012
0.581025
0.581038
0.581038
0.58105
0.581063
0.581076
0.581089
0.581089
0.581102
0.581115
0.581127
0.58114
0.58114
0.581153
0.581165
0.581178
0.58119
0.58119
0.581203
0.581215
0.581228
0.58124
0.58124
0.581252
0.581264
0.581277
0.581289
0.581289
0.581301
0.581313
0.581325
0.581338
0.581338
0.58135
0.581362
0.581373
0.581385
0.581385
0.581397
0.581409
0.581421
0.581433
0.581433
0.581444
0.581456
0.581468
0.581479
0.581479
0.581491
0.581503
0.581514
0.581526
0.581526
0.581537
0.581548
0.58156
0.581571
0.581571
0.581583
0.581594
0.581605
0.581616
0.581616
0.581627
0.581639
0.58165
0.581661
0.581661
0.581672
0.581683
0.581694
0.581705
0.581705
0.581716
0.581727
0.581738
0.581748
0.581748
0.581759
0.58177
0.581781
0.581791
0.581791
0.581802
0.581813
0.581823
0.581834
0.581834
0.581844
0.581855
0.581865
0.581876
0.581876
0.581886
0.581897
0.581907
0.581917
0.581917
0.581928
0.581938
0.581948
0.581958
0.581958
0.581969
0.581979
0.581989
0.581999
0.581999
0.582009
0.582019
0.582029
0.582039
0.582039
0.582049
0.582059
0.582069
0.582078
0.582078
0.582088
0.582098
0.582108
0.582118
0.582118
0.582127
0.582137
0.582147
0.582156
0.582156
0.582166
0.582175
0.582185
0.582195
0.582195
0.582204
0.582213
0.582223
0.582232
0.582232
0.582242
0.582251
0.58226
0.58227
0.58227
0.582279
0.582288
0.582297
0.582307
0.582307
0.582316
0.582325
0.582334
0.582343
0.582343
0.582352
0.582361
0.58237
0.582379
0.582379
0.582388
0.582397
0.582406
0.582415
0.582415
0.582424
0.582433
0.582441
0.58245
0.58245
0.582459
0.582468
0.582476
0.582485
0.582485
0.582494
0.582502
0.582511
0.58252