<?xml version="1.0"?>
<VTKFile type="UnstructuredGrid" version="0.1" byte_order="LittleEndian">
<UnstructuredGrid>
<Piece NumberOfPoints="5000" NumberOfCells="4000">
<PointData Scalars="Reaction 0">
<DataArray type="Float32" Name="Reaction 0" format="ascii">
0.659484
0.659484
0.659484
0.659484
0.659484
0.659484
0.659484
0.659484
0.659484
0.659484
0.659484
0.659484
0.659484
0.659484
0.659484
0.659484
0.659484
0.659484
0.659484
0.659484
0.659484
0.659484
0.659484
0.659484
0.659484
0.659484
0.659485
0.659485
0.659485
0.659485
0.659485
0.659485
0.659485
0.659485
0.659485
0.659485
0.659485
0.659486
0.659486
0.659486
0.659486
0.659486
0.659486
0.659486
0.659486
0.659486
0.659487
0.659487
0.659487
0.659487
0.659487
0.659487
0.659487
0.659488
0.659488
0.659488
0.659488
0.659488
0.659488
0.659488
0.659488
0.659489
0.659489
0.659489
0.659489
0.659489
0.65949
0.65949
0.65949
0.65949
0.65949
0.65949
0.659491
0.659491
0.659491
0.659491
0.659491
0.659492
0.659492
0.659492
0.659492
0.659492
0.659493
0.659493
0.659493
0.659493
0.659494
0.659494
0.659494
0.659495
0.659495
0.659495
0.659495
0.659495
0.659496
0.659496
0.659496
0.659496
0.659497
0.659497
0.659497
0.659497
0.659498
0.659498
0.659498
0.659498
0.659499
0.659499
0.6595
0.6595
0.6595
0.6595
0.659501
0.659501
0.659501
0.659501
0.659502
0.659502
0.659503
0.659503
0.659503
0.659503
0.659504
0.659504
0.659505
0.659505
0.659505
0.659505
0.659506
0.659506
0.659506
0.659507
0.659507
0.659508
0.659508
0.659508
0.659509
0.659509
0.659509
0.65951
0.65951
0.65951
0.659511
0.659511
0.659512
0.659512
0.659512
0.659513
0.659513
0.659514
0.659514
0.659514
0.659515
0.659515
0.659516
0.659516
0.659516
0.659517
0.659517
0.659518
0.659518
0.659519
0.659519
0.65952
0.65952
0.65952
0.659521
0.659521
0.659522
0.659522
0.659522
0.659523
0.659524
0.659524
0.659525
0.659525
0.659525
0.659526
0.659527
0.659527
0.659527
0.659528
0.659528
0.659529
0.65953
0.65953
0.65953
0.659531
0.659531
0.659532
0.659532
0.659533
0.659533
0.659534
0.659535
0.659535
0.659535
0.659536
0.659537
0.659537
0.659537
0.659538
0.659539
0.659539
0.65954
0.65954
0.659541
0.659541
0.659542
0.659543
0.659543
0.659544
0.659544
0.659545
0.659546
0.659546
0.659546
0.659547
0.659548
0.659549
0.659549
0.659549
0.65955
0.659551
0.659552
0.659552
0.659552
0.659553
0.659554
0.659555
0.659555
0.659555
0.659556
0.659557
0.659558
0.659558
0.659559
0.659559
0.65956
0.659561
0.659561
0.659562
0.659563
0.659563
0.659564
0.659564
0.659565
0.659566
0.659567
0.659568
0.659568
0.659568
0.659569
0.65957
0.659571
0.659571
0.659572
0.659573
0.659574
0.659574
0.659574
0.659575
0.659576
0.659577
0.659578
0.659578
0.659579
0.65958
0.659581
0.659582
0.659582
0.659583
0.659583
0.659584
0.659585
0.659585
0.659586
0.659587
0.659588
0.659589
0.659589
0.65959
0.659591
0.659592
0.659593
0.659593
0.659594
0.659595
0.659596
0.659597
0.659597
0.659598
0.659599
0.6596
0.659601
0.659601
0.659602
0.659603
0.659604
0.659605
0.659605
0.659606
0.659607
0.659608
0.659609
0.659609
0.65961
0.659611
0.659612
0.659613
0.659613
0.659614
0.659615
0.659616
0.659617
0.659617
0.659618
0.659619
0.65962
0.659621
0.659621
0.659622
0.659623
0.659625
0.659626
0.659626
0.659627
0.659628
0.659629
0.65963
0.65963
0.659631
0.659632
0.659633
0.659635
0.659635
0.659636
0.659637
0.659638
0.659639
0.659639
0.65964
0.659641
0.659643
0.659644
0.659644
0.659645
0.659646
0.659647
0.659648
0.659648
0.65965
0.659651
0.659652
0.659653
0.659653
0.659654
0.659655
0.659657
0.659658
0.659658
0.659659
0.65966
0.659662
0.659663
0.659663
0.659664
0.659665
0.659666
0.659668
0.659668
0.659669
0.65967
0.659671
0.659673
0.659673
0.659674
0.659675
0.659677
0.659678
0.659678
0.659679
0.65968
0.659682
0.659683
0.659683
0.659684
0.659686
0.659687
0.659688
0.659688
0.659689
0.659691
0.659692
0.659693
0.659693
0.659695
0.659696
0.659697
0.659699
0.659699
0.6597
0.659702
0.659703
0.659704
0.659704
0.659706
0.659707
0.659708
0.65971
0.65971
0.659711
0.659712
0.659714
0.659715
0.659715
0.659717
0.659718
0.659719
0.659721
0.659721
0.659722
0.659724
0.659725
0.659727
0.659727
0.659728
0.659729
0.659731
0.659732
0.659732
0.659734
0.659735
0.659737
0.659738
0.659738
0.65974
0.659741
0.659743
0.659744
0.659744
0.659746
0.659747
0.659749
0.65975
0.65975
0.659752
0.659753
0.659755
0.659756
0.659756
0.659758
0.659759
0.659761
0.659762
0.659762
0.659764
0.659765
0.659767
0.659768
0.659768
0.65977
0.659771
0.659773
0.659775
0.659775
0.659776
0.659778
0.659779
0.659781
0.659781
0.659782
0.659784
0.659786
0.659787
0.659787
0.659789
0.65979
0.659792
0.659794
0.659794
0.659795
0.659797
0.659799
0.6598
0.6598
0.659802
0.659803
0.659805
0.659807
0.659807
0.659808
0.65981
0.659812
0.659813
0.659813
0.659815
0.659817
0.659818
0.65982
0.65982
0.659822
0.659823
0.659825
0.659827
0.659827
0.659829
0.65983
0.659832
0.659834
0.659834
0.659835
0.659837
0.659839
0.659841
0.659841
0.659842
0.659844
0.659846
0.659848
0.659848
0.659849
0.659851
0.659853
0.659855
0.659855
0.659856
0.659858
0.65986
0.659862
0.659862
0.659864
0.659865
0.659867
0.659869
0.659869
0.659871
0.659873
0.659874
0.659876
0.659876
0.659878
0.65988
0.659882
0.659884
0.659884
0.659885
0.659887
0.659889
0.659891
0.659891
0.659893
0.659895
0.659896
0.659898
0.659898
0.6599
0.659902
0.659904
0.659906
0.659906
0.659908
0.65991
0.659912
0.659913
0.659913
0.659915
0.659917
0.659919
0.659921
0.659921
0.659923
0.659925
0.659927
0.659929
0.659929
0.659931
0.659933
0.659935
0.659937
0.659937
0.659939
0.659941
0.659943
0.659944
0.659944
0.659946
0.659948
0.65995
0.659952
0.659952
0.659954
0.659956
0.659958
0.65996
0.65996
0.659962
0.659964
0.659966
0.659969
0.659969
0.659971
0.659973
0.659975
0.659977
0.659977
0.659979
0.659981
0.659983
0.659985
0.659985
0.659987
0.659989
0.659991
0.659993
0.659993
0.659995
0.659997
0.659999
0.660001
0.660001
0.660004
0.660006
0.660008
0.66001
0.66001
0.660012
0.660014
0.660016
0.660018
0.660018
0.66002
0.660023
0.660025
0.660027
0.660027
0.660029
0.660031
0.660033
0.660036
0.660036
0.660038
0.66004
0.660042
0.660044
0.660044
0.660046
0.660049
0.660051
0.660053
0.660053
0.660055
0.660057
0.66006
0.660062
0.660062
0.660064
0.660066
0.660068
0.660071
0.660071
0.660073
0.660075
0.660077
0.66008
0.66008
0.660082
0.660084
0.660086
0.660089
0.660089
0.660091
0.660093
0.660095
0.660098
0.660098
0.6601
0.660102
0.660105
0.660107
0.660107
0.660109
0.660111
0.660114
0.660116
0.660116
0.660118
0.660121
0.660123
0.660125
0.660125
0.660128
0.66013
0.660132
0.660135
0.660135
0.660137
0.660139
0.660142
0.660144
0.660144
0.660147
0.660149
0.660151
0.660154
0.660154
0.660156
0.660159
0.660161
0.660163
0.660163
0.660166
0.660168
0.660171
0.660173
0.660173
0.660175
0.660178
0.66018
0.660183
0.660183
0.660185
0.660188
0.66019
0.660192
0.660192
0.660195
0.660197
0.6602
0.660202
0.660202
0.660205
0.660207
0.66021
0.660212
0.660212
0.660215
0.660217
0.66022
0.660222
0.660222
0.660225
0.660227
0.66023
0.660232
0.660232
0.660235
0.660237
0.66024
0.660242
0.660242
0.660245
0.660247
0.66025
0.660253
0.660253
0.660255
0.660258
0.66026
0.660263
0.660263
0.660265
0.660268
0.660271
0.660273
0.660273
0.660276
0.660278
0.660281
0.660284
0.660284
0.660286
0.660289
0.660291
0.660294
0.660294
0.660297
0.660299
0.660302
0.660305
0.660305
0.660307
0.66031
0.660312
0.660315
0.660315
0.660318
0.66032
0.660323
0.660326
0.660326
0.660329
0.660331
0.660334
0.660337
0.660337
0.660339
0.660342
0.660345
0.660347
0.660347
0.66035
0.660353
0.660356
0.660358
0.660358
0.660361
0.660364
0.660366
0.660369
0.660369
0.660372
0.660375
0.660377
0.66038
0.66038
0.660383
0.660386
0.660389
0.660391
0.660391
0.660394
0.660397
0.6604
0.660402
0.660402
0.660405
0.660408
0.660411
0.660414
0.660414
0.660417
0.660419
0.660422
0.660425
0.660425
0.660428
0.660431
0.660434
0.660436
0.660436
0.660439
0.660442
0.660445
0.660448
0.660448
0.660451
0.660454
0.660456
0.660459
0.660459
0.660462
0.660465
0.660468
0.660471
0.660471
0.660474
0.660477
0.66048
0.660483
0.660483
0.660485
0.660488
0.660491
0.660494
0.660494
0.660497
0.6605
0.660503
0.660506
0.660506
0.660509
0.660512
0.660515
0.660518
0.660518
0.660521
0.660524
0.660527
0.66053
0.66053
0.660533
0.660536
0.660539
0.660542
0.660542
0.660545
0.660548
0.660551
0.660554
0.660554
0.660557
0.66056
0.660563
0.660566
0.660566
0.660569
0.660572
0.660575
0.660578
0.660578
0.660581
0.660584
0.660587
0.66059
0.66059
0.660594
0.660597
0.6606
0.660603
0.660603
0.660606
0.660609
0.660612
0.660615
0.660615
0.660618
0.660621
0.660625
0.660628
0.660628
0.660631
0.660634
0.660637
0.66064
0.66064
0.660643
0.660646
0.66065
0.660653
0.660653
0.660656
0.660659
0.660662
0.660665
0.660665
0.660669
0.660672
0.660675
0.660678
0.660678
0.660681
0.660685
0.660688
0.660691
0.660691
0.660694
0.660697
0.660701
0.660704
0.660704
0.660707
0.66071
0.660714
0.660717
0.660717
0.66072
0.660723
0.660727
0.66073
0.66073
0.660733
0.660737
0.66074
0.660743
0.660743
0.660746
0.66075
0.660753
0.660756
0.660756
0.66076
0.660763
0.660766
0.660769
0.660769
0.660773
0.660776
0.660779
0.660783
0.660783
0.660786
0.660789
0.660793
0.660796
0.660796
0.6608
0.660803
0.660806
0.66081
0.66081
0.660813
0.660816
0.66082
0.660823
0.660823
0.660827
0.66083
0.660833
0.660837
0.660837
0.66084
0.660844
0.660847
0.66085
0.66085
0.660854
0.660857
0.660861
0.660864
0.660864
0.660868
0.660871
0.660874
0.660878
0.660878
0.660881
0.660885
0.660888
0.660892
0.660892
0.660895
0.660899
0.660902
0.660906
0.660906
0.660909
0.660913
0.660916
0.66092
0.66092
0.660923
0.660927
0.66093
0.660934
0.660934
0.660937
0.660941
0.660944
0.660948
0.660948
0.660952
0.660955
0.660959
0.660962
0.660962
0.660966
0.660969
0.660973
0.660977
0.660977
0.66098
0.660984
0.660987
0.660991
0.660991
0.660994
0.660998
0.661002
0.661005
0.661005
0.661009
0.661013
0.661016
0.66102
0.66102
0.661023
0.661027
0.661031
0.661034
0.661034
0.661038
0.661042
0.661045
0.661049
0.661049
0.661053
0.661056
0.66106
0.661064
0.661064
0.661067
0.661071
0.661075
0.661079
0.661079
0.661082
0.661086
0.66109
0.661093
0.661093
0.661097
0.661101
0.661105
0.661108
0.661108
0.661112
0.661116
0.66112
0.661123
0.661123
0.661127
0.661131
0.661135
0.661138
0.661138
0.661142
0.661146
0.66115
0.661154
0.661154
0.661157
0.661161
0.661165
0.661169
0.661169
0.661173
0.661176
0.66118
0.661184
0.661184
0.661188
0.661192
0.661196
0.661199
0.661199
0.661203
0.661207
0.661211
0.661215
0.661215
0.661219
0.661223
0.661226
0.66123
0.66123
0.661234
0.661238
0.661242
0.661246
0.661246
0.66125
0.661254
0.661258
0.661262
0.661262
0.661265
0.661269
0.661273
0.661277
0.661277
0.661281
0.661285
0.661289
0.661293
0.661293
0.661297
0.661301
0.661305
0.661309
0.661309
0.661313
0.661317
0.661321
0.661325
0.661325
0.661329
0.661333
0.661337
0.661341
0.661341
0.661345
0.661349
0.661353
0.661357
0.661357
0.661361
0.661365
0.661369
0.661373
0.661373
0.661377
0.661381
0.661385
0.661389
0.661389
0.661393
0.661397
0.661401
0.661406
0.661406
0.66141
0.661414
0.661418
0.661422
0.661422
0.661426
0.66143
0.661434
0.661438
0.661438
0.661442
0.661447
0.661451
0.661455
0.661455
0.661459
0.661463
0.661467
0.661471
0.661471
0.661476
0.66148
0.661484
0.661488
0.661488
0.661492
0.661496
0.661501
0.661505
0.661505
0.661509
0.661513
0.661517
0.661521
0.661521
0.661526
0.66153
0.661534
0.661538
0.661538
0.661543
0.661547
0.661551
0.661555
0.661555
0.661559
0.661564
0.661568
0.661572
0.661572
0.661576
0.661581
0.661585
0.661589
0.661589
0.661594
0.661598
0.661602
0.661606
0.661606
0.661611
0.661615
0.661619
0.661624
0.661624
0.661628
0.661632
0.661637
0.661641
0.661641
0.661645
0.66165
0.661654
0.661658
0.661658
0.661663
0.661667
0.661671
0.661676
0.661676
0.66168
0.661684
0.661689
0.661693
0.661693
0.661698
0.661702
0.661706
0.661711
0.661711
0.661715
0.66172
0.661724
0.661728
0.661728
0.661733
0.661737
0.661742
0.661746
0.661746
0.661751
0.661755
0.661759
0.661764
0.661764
0.661768
0.661773
0.661777
0.661782
0.661782
0.661786
0.661791
0.661795
0.6618
0.6618
0.661804
0.661809
0.661813
0.661818
0.661818
0.661822
0.661827
0.661831
0.661836
0.661836
0.66184
0.661845
0.661849
0.661854
0.661854
0.661858
0.661863
0.661868
0.661872
0.661872
0.661877
0.661881
0.661886
0.66189
0.66189
0.661895
0.6619
0.661904
0.661909
0.661909
0.661913
0.661918
0.661923
0.661927
0.661927
0.661932
0.661936
0.661941
0.661946
0.661946
0.66195
0.661955
0.66196
0.661964
0.661964
0.661969
0.661974
0.661978
0.661983
0.661983
0.661988
0.661992
0.661997
0.662002
0.662002
0.662006
0.662011
0.662016
0.66202
0.66202
0.662025
0.66203
0.662035
0.662039
0.662039
0.662044
0.662049
0.662054
0.662058
0.662058
0.662063
0.662068
0.662073
0.662077
0.662077
0.662082
0.662087
0.662092
0.662096
0.662096
0.662101
0.662106
0.662111
0.662116
0.662116
0.66212
0.662125
0.66213
0.662135
0.662135
0.66214
0.662144
0.662149
0.662154
0.662154
0.662159
0.662164
0.662169
0.662173
0.662173
0.662178
0.662183
0.662188
0.662193
0.662193
0.662198
0.662203
0.662208
0.662212
0.662212
0.662217
0.662222
0.662227
0.662232
0.662232
0.662237
0.662242
0.662247
0.662252
0.662252
0.662257
0.662262
0.662267
0.662271
0.662271
0.662276
0.662281
0.662286
0.662291
0.662291
0.662296
0.662301
0.662306
0.662311
0.662311
0.662316
0.662321
0.662326
0.662331
0.662331
0.662336
0.662341
0.662346
0.662351
0.662351
0.662356
0.662361
0.662366
0.662371
0.662371
0.662376
0.662381
0.662386
0.662391
0.662391
0.662397
0.662402
0.662407
0.662412
0.662412
0.662417
0.662422
0.662427
0.662432
0.662432
0.662437
0.662442
0.662447
0.662452
0.662452
0.662458
0.662463
0.662468
0.662473
0.662473
0.662478
0.662483
0.662488
0.662493
0.662493
0.662499
0.662504
0.662509
0.662514
0.662514
0.662519
0.662524
0.66253
0.662535
0.662535
0.66254
0.662545
0.66255
0.662556
0.662556
0.662561
0.662566
0.662571
0.662576
0.662576
0.662582
0.662587
0.662592
0.662597
0.662597
0.662603
0.662608
0.662613
0.662618
0.662618
0.662624
0.662629
0.662634
0.662639
0.662639
0.662645
0.66265
0.662655
0.662661
0.662661
0.662666
0.662671
0.662676
0.662682
0.662682
0.662687
0.662692
0.662698
0.662703
0.662703
0.662708
0.662714
0.662719
0.662724
0.662724
0.66273
0.662735
0.66274
0.662746
0.662746
0.662751
0.662757
0.662762
0.662767
0.662767
0.662773
0.662778
0.662784
0.662789
0.662789
0.662794
0.6628
0.662805
0.662811
0.662811
0.662816
0.662821
0.662827
0.662832
0.662832
0.662838
0.662843
0.662849
0.662854
0.662854
0.66286
0.662865
0.662871
0.662876
0.662876
0.662882
0.662887
0.662892
0.662898
0.662898
0.662903
0.662909
0.662915
0.66292
0.66292
0.662926
0.662931
0.662937
0.662942
0.662942
0.662948
0.662953
0.662959
0.662964
0.662964
0.66297
0.662975
0.662981
0.662987
0.662987
0.662992
0.662998
0.663003
0.663009
0.663009
0.663014
0.66302
0.663026
0.663031
0.663031
0.663037
0.663043
0.663048
0.663054
0.663054
0.663059
0.663065
0.663071
0.663076
0.663076
0.663082
0.663088
0.663093
0.663099
0.663099
0.663105
0.66311
0.663116
0.663122
0.663122
0.663127
0.663133
0.663139
0.663144
0.663144
0.66315
0.663156
0.663162
0.663167
0.663167
0.663173
0.663179
0.663184
0.66319
0.66319
0.663196
0.663202
0.663207
0.663213
0.663213
0.663219
0.663225
0.663231
0.663236
0.663236
0.663242
0.663248
0.663254
0.663259
0.663259
0.663265
0.663271
0.663277
0.663283
0.663283
0.663289
0.663294
0.6633
0.663306
0.663306
0.663312
0.663318
0.663324
0.663329
0.663329
0.663335
0.663341
0.663347
0.663353
0.663353
0.663359
0.663365
0.66337
0.663376
0.663376
0.663382
0.663388
0.663394
0.6634
0.6634
0.663406
0.663412
0.663418
0.663424
0.663424
0.66343
0.663436
0.663441
0.663447
0.663447
0.663453
0.663459
0.663465
0.663471
0.663471
0.663477
0.663483
0.663489
0.663495
0.663495
0.663501
0.663507
0.663513
0.663519
0.663519
0.663525
0.663531
0.663537
0.663543
0.663543
0.663549
0.663555
0.663561
0.663567
0.663567
0.663573
0.663579
0.663586
0.663592
0.663592
0.663598
0.663604
0.66361
0.663616
0.663616
0.663622
0.663628
0.663634
0.66364
0.66364
0.663646
0.663652
0.663659
0.663665
0.663665
0.663671
0.663677
0.663683
0.663689
0.663689
0.663695
0.663701
0.663708
0.663714
0.663714
0.66372
0.663726
0.663732
0.663738
0.663738
0.663745
0.663751
0.663757
0.663763
0.663763
0.663769
0.663776
0.663782
0.663788
0.663788
0.663794
0.6638
0.663807
0.663813
0.663813
0.663819
0.663825
0.663832
0.663838
0.663838
0.663844
0.66385
0.663857
0.663863
0.663863
0.663869
0.663875
0.663882
0.663888
0.663888
0.663894
0.663901
0.663907
0.663913
0.663913
0.66392
0.663926
0.663932
0.663939
0.663939
0.663945
0.663951
0.663958
0.663964
0.663964
0.66397
0.663977
0.663983
0.663989
0.663989
0.663996
0.664002
0.664008
0.664015
0.664015
0.664021
0.664028
0.664034
0.66404
0.66404
0.664047
0.664053
0.66406
0.664066
0.664066
0.664073
0.664079
0.664085
0.664092
0.664092
0.664098
0.664105
0.664111
0.664118
0.664118
0.664124
0.664131
0.664137
0.664144
0.664144
0.66415
0.664156
0.664163
0.66417
0.66417
0.664176
0.664183
0.664189
0.664196
0.664196
0.664202
0.664209
0.664215
0.664222
0.664222
0.664228
0.664235
0.664241
0.664248
0.664248
0.664254
0.664261
0.664268
0.664274
0.664274
0.664281
0.664287
0.664294
0.664301
0.664301
0.664307
0.664314
0.66432
0.664327
0.664327
0.664334
0.66434
0.664347
0.664353
0.664353
0.66436
0.664367
0.664373
0.66438
0.66438
0.664387
0.664393
0.6644
0.664407
0.664407
0.664413
0.66442
0.664427
0.664434
0.664434
0.66444
0.664447
0.664454
0.66446
0.66446
0.664467
0.664474
0.66448
0.664487
0.664487
0.664494
0.664501
0.664507
0.664514
0.664514
0.664521
0.664528
0.664535
0.664541
0.664541
0.664548
0.664555
0.664562
0.664568
0.664568
0.664575
0.664582
0.664589
0.664596
0.664596
0.664602
0.664609
0.664616
0.664623
0.664623
0.66463
0.664637
0.664643
0.66465
0.66465
0.664657
0.664664
0.664671
0.664678
0.664678
0.664685
0.664691
0.664698
0.664705
0.664705
0.664712
0.664719
0.664726
0.664733
0.664733
0.66474
0.664747
0.664754
0.664761
0.664761
0.664767
0.664774
0.664781
0.664788
0.664788
0.664795
0.664802
0.664809
0.664816
0.664816
0.664823
0.66483
0.664837
0.664844
0.664844
0.664851
0.664858
0.664865
0.664872
0.664872
0.664879
0.664886
0.664893
0.6649
0.6649
0.664907
0.664914
0.664921
0.664928
0.664928
0.664935
0.664942
0.664949
0.664956
0.664956
0.664964
0.664971
0.664978
0.664985
0.664985
0.664992
0.664999
0.665006
0.665013
0.665013
0.66502
0.665027
0.665035
0.665042
0.665042
0.665049
0.665056
0.665063
0.66507
0.66507
0.665077
0.665085
0.665092
0.665099
0.665099
0.665106
0.665113
0.66512
0.665128
0.665128
0.665135
0.665142
0.665149
0.665156
0.665156
0.665164
0.665171
0.665178
0.665185
0.665185
0.665192
0.6652
0.665207
0.665214
0.665214
0.665221
0.665229
0.665236
0.665243
0.665243
0.66525
0.665258
0.665265
0.665272
0.665272
0.66528
0.665287
0.665294
0.665301
0.665301
0.665309
0.665316
0.665323
0.665331
0.665331
0.665338
0.665345
0.665353
0.66536
0.66536
0.665367
0.665375
0.665382
0.665389
0.665389
0.665397
0.665404
0.665412
0.665419
0.665419
0.665426
0.665434
0.665441
0.665449
0.665449
0.665456
0.665463
0.665471
0.665478
0.665478
0.665486
0.665493
0.665501
0.665508
0.665508
0.665515
0.665523
0.66553
0.665538
0.665538
0.665545
0.665553
0.66556
0.665568
0.665568
0.665575
0.665583
0.66559
0.665598
0.665598
0.665605
0.665613
0.66562
0.665628
0.665628
0.665635
0.665643
0.66565
0.665658
0.665658
0.665665
0.665673
0.665681
0.665688
0.665688
0.665696
0.665703
0.665711
0.665718
0.665718
0.665726
0.665734
0.665741
0.665749
0.665749
0.665756
0.665764
0.665772
0.665779
0.665779
0.665787
0.665794
0.665802
0.66581
0.66581
0.665817
0.665825
0.665833
0.66584
0.66584
0.665848
0.665856
0.665863
0.665871
0.665871
0.665879
0.665886
0.665894
0.665902
0.665902
0.66591
0.665917
0.665925
0.665933
0.665933
0.66594
0.665948
0.665956
0.665964
0.665964
0.665971
0.665979
0.665987
0.665995
0.665995
0.666002
0.66601
0.666018
0.666026
0.666026
0.666034
0.666041
0.666049
0.666057
0.666057
0.666065
0.666073
0.66608
0.666088
0.666088
0.666096
0.666104
0.666112
0.66612
0.66612
0.666127
0.666135
0.666143
0.666151
0.666151
0.666159
0.666167
0.666175
0.666183
0.666183
0.66619
0.666198
0.666206
0.666214
0.666214
0.666222
0.66623
0.666238
0.666246
0.666246
0.666254
0.666262
0.66627
0.666278
0.666278
0.666286
0.666293
0.666301
0.666309
0.666309
0.666317
0.666325
0.666333
0.666341
0.666341
0.666349
0.666357
0.666365
0.666373
0.666373
0.666381
0.666389
0.666397
0.666405
0.666405
0.666413
0.666422
0.66643
0.666438
0.666438
0.666446
0.666454
0.666462
0.66647
0.66647
0.666478
0.666486
0.666494
0.666502
0.666502
0.66651
0.666518
0.666526
0.666535
0.666535
0.666543
0.666551
0.666559
0.666567
0.666567
0.666575
0.666583
0.666592
0.6666
0.6666
0.666608
0.666616
0.666624
0.666632
0.666632
0.66664
0.666649
0.666657
0.666665
0.666665
0.666673
0.666681
0.66669
0.666698
0.666698
0.666706
0.666714
0.666723
0.666731
0.666731
0.666739
0.666747
0.666756
0.666764
0.666764
0.666772
0.66678
0.666789
0.666797
0.666797
0.666805
0.666813
0.666822
0.66683
0.66683
0.666838
0.666847
0.666855
0.666863
0.666863
0.666872
0.66688
0.666888
0.666897
0.666897
0.666905
0.666913
0.666922
0.66693
0.66693
0.666938
0.666947
0.666955
0.666963
0.666963
0.666972
0.66698
0.666989
0.666997
0.666997
0.667005
0.667014
0.667022
0.667031
0.667031
0.667039
0.667047
0.667056
0.667064
0.667064
0.667073
0.667081
0.66709
0.667098
0.667098
0.667107
0.667115
0.667124
0.667132
0.667132
0.667141
0.667149
0.667158
0.667166
0.667166
0.667175
0.667183
0.667192
0.6672
0.6672
0.667209
0.667217
0.667226
0.667234
0.667234
0.667243
0.667251
0.66726
0.667268
0.667268
0.667277
0.667286
0.667294
0.667303
0.667303
0.667311
0.66732
0.667329
0.667337
0.667337
0.667346
0.667354
0.667363
0.667372
0.667372
0.66738
0.667389
0.667398
0.667406
0.667406
0.667415
0.667424
0.667432
0.667441
0.667441
0.66745
0.667458
0.667467
0.667476
0.667476
0.667484
0.667493
0.667502
0.66751
0.66751
0.667519
0.667528
0.667537
0.667545
0.667545
0.667554
0.667563
0.667572
0.66758
0.66758
0.667589
0.667598
0.667607
0.667615
0.667615
0.667624
0.667633
0.667642
0.667651
0.667651
0.667659
0.667668
0.667677
0.667686
0.667686
0.667695
0.667703
0.667712
0.667721
0.667721
0.66773
0.667739
0.667748
0.667756
0.667756
0.667765
0.667774
0.667783
0.667792
0.667792
0.667801
0.66781
0.667819
0.667828
0.667828
0.667836
0.667845
0.667854
0.667863
0.667863
0.667872
0.667881
0.66789
0.667899
0.667899
0.667908
0.667917
0.667926
0.667935
0.667935
0.667944
0.667953
0.667962
0.667971
0.667971
0.66798
0.667989
0.667998
0.668007
0.668007
0.668016
0.668025
0.668034
0.668043
0.668043
0.668052
0.668061
0.66807
0.668079
0.668079
0.668088
0.668097
0.668106
0.668115
0.668115
0.668124
0.668133
0.668142
0.668152
0.668152
0.668161
0.66817
0.668179
0.668188
0.668188
0.668197
0.668206
0.668215
0.668224
0.668224
0.668234
0.668243
0.668252
0.668261
0.668261
0.66827
0.668279
0.668289
0.668298
0.668298
0.668307
0.668316
0.668325
0.668335
0.668335
0.668344
0.668353
0.668362
0.668371
0.668371
0.668381
0.66839
0.668399
0.668408
0.668408
0.668418
0.668427
0.668436
0.668445
0.668445
0.668455
0.668464
0.668473
0.668482
0.668482
0.668492
0.668501
0.66851
0.66852
0.66852
0.668529
0.668538
0.668548
0.668557
0.668557
0.668566
0.668576
0.668585
0.668594
0.668594
0.668604
0.668613
0.668622
0.668632
0.668632
0.668641
0.66865
0.66866
0.668669
0.668669
0.668679
0.668688
0.668697
0.668707
0.668707
0.668716
0.668726
0.668735
0.668745
0.668745
0.668754
0.668763
0.668773
0.668782
0.668782
0.668792
0.668801
0.668811
0.66882
0.66882
0.66883
0.668839
0.668849
0.668858
0.668858
0.668868
0.668877
0.668887
0.668896
0.668896
0.668906
0.668915
0.668925
0.668934
0.668934
0.668944
0.668954
0.668963
0.668973
0.668973
0.668982
0.668992
0.669001
0.669011
0.669011
0.669021
0.66903
0.66904
0.669049
0.669049
0.669059
0.669069
0.669078
0.669088
0.669088
0.669098
0.669107
0.669117
0.669126
0.669126
0.669136
0.669146
0.669155
0.669165
0.669165
0.669175
0.669185
0.669194
0.669204
0.669204
0.669214
0.669223
0.669233
0.669243
0.669243
0.669252
0.669262
0.669272
0.669282
0.669282
0.669291
0.669301
0.669311
0.669321
0.669321
0.66933
0.66934
0.66935
0.66936
0.66936
0.66937
0.669379
0.669389
0.669399
0.669399
0.669409
0.669419
0.669428
0.669438
0.669438
0.669448
0.669458
0.669468
0.669478
0.669478
0.669487
0.669497
0.669507
0.669517
0.669517
0.669527
0.669537
0.669547
0.669557
0.669557
0.669567
0.669576
0.669586
0.669596
0.669596
0.669606
0.669616
0.669626
0.669636
0.669636
0.669646
0.669656
0.669666
0.669676
0.669676
0.669686
0.669696
0.669706
0.669716
0.669716
0.669726
0.669736
0.669746
0.669756
0.669756
0.669766
0.669776
0.669786
0.669796
0.669796
0.669806
0.669816
0.669826
0.669836
0.669836
0.669846
0.669856
0.669866
0.669876
0.669876
0.669886
0.669896
0.669906
0.669917
0.669917
0.669927
0.669937
0.669947
0.669957
0.669957
0.669967
0.669977
0.669987
0.669997
0.669997
0.670008
0.670018
0.670028
0.670038
0.670038
0.670048
0.670058
0.670069
0.670079
0.670079
0.670089
0.670099
0.670109
0.67012
0.67012
0.67013
0.67014
0.67015
0.67016
0.67016
0.670171
0.670181
0.670191
0.670201
0.670201
0.670212
0.670222
0.670232
0.670242
0.670242
0.670253
0.670263
0.670273
0.670284
0.670284
0.670294
0.670304
0.670314
0.670325
0.670325
0.670335
0.670345
0.670356
0.670366
0.670366
0.670376
0.670387
0.670397
0.670408
0.670408
0.670418
0.670428
0.670439
0.670449
0.670449
0.670459
0.67047
0.67048
0.670491
0.670491
0.670501
0.670511
0.670522
0.670532
0.670532
0.670543
0.670553
0.670564
0.670574
0.670574
0.670585
0.670595
0.670605
0.670616
0.670616
0.670626
0.670637
0.670647
0.670658
0.670658
0.670668
0.670679
0.670689
0.6707
0.6707
0.67071
0.670721
0.670731
0.670742
0.670742
0.670753
0.670763
0.670774
0.670784
0.670784
0.670795
0.670805
0.670816
0.670827
0.670827
0.670837
0.670848
0.670858
0.670869
0.670869
0.67088
0.67089
0.670901
0.670911
0.670911
0.670922
0.670933
0.670943
0.670954
0.670954
0.670965
0.670975
0.670986
0.670997
0.670997
0.671007
0.671018
0.671029
0.67104
0.67104
0.67105
0.671061
0.671072
0.671082
0.671082
0.671093
0.671104
0.671115
0.671125
0.671125
0.671136
0.671147
0.671158
0.671168
0.671168
0.671179
0.67119
0.671201
0.671211
0.671211
0.671222
0.671233
0.671244
0.671255
0.671255
0.671265
0.671276
0.671287
0.671298
0.671298
0.671309
0.67132
0.671331
0.671341
0.671341
0.671352
0.671363
0.671374
0.671385
0.671385
0.671396
0.671407
0.671418
0.671428
0.671428
0.671439
0.67145
0.671461
0.671472
0.671472
0.671483
0.671494
0.671505
0.671516
0.671516
0.671527
0.671538
0.671549
0.67156
0.67156
0.671571
0.671582
0.671593
0.671604
0.671604
0.671615
0.671626
0.671637
0.671648
0.671648
0.671659
0.67167
0.671681
0.671692
0.671692
0.671703
0.671714
0.671725
0.671736
0.671736
0.671747
0.671758
0.671769
0.67178
0.67178
0.671792
0.671803
0.671814
0.671825
0.671825
0.671836
0.671847
0.671858
0.671869
0.671869
0.671881
0.671892
0.671903
0.671914
0.671914
0.671925
0.671936
0.671948
0.671959
0.671959
0.67197
0.671981
0.671992
0.672003
0.672003
0.672015
0.672026
0.672037
0.672048
0.672048
0.67206
0.672071
0.672082
0.672093
0.672093
0.672105
0.672116
0.672127
0.672138
0.672138
0.67215
0.672161
0.672172
0.672184
0.672184
0.672195
0.672206
0.672218
0.672229
0.672229
0.67224
0.672252
0.672263
0.672274
0.672274
0.672286
0.672297
0.672308
0.67232
0.67232
0.672331
0.672342
0.672354
0.672365
0.672365
0.672377
0.672388
0.672399
0.672411
0.672411
0.672422
0.672434
0.672445
0.672457
0.672457
0.672468
0.672479
0.672491
0.672502
0.672502
0.672514
0.672525
0.672537
0.672548
0.672548
0.67256
0.672571
0.672583
0.672594
0.672594
0.672606
0.672617
0.672629
0.67264
0.67264
0.672652
0.672663
0.672675
0.672686
0.672686
0.672698
0.67271
0.672721
0.672733
0.672733
0.672744
0.672756
0.672768
0.672779
0.672779
0.672791
0.672802
0.672814
0.672826
0.672826
0.672837
0.672849
0.672861
0.672872
0.672872
0.672884
0.672895
0.672907
0.672919
0.672919
0.672931
0.672942
0.672954
0.672966
0.672966
0.672977
0.672989
0.673001
0.673012
0.673012
0.673024
0.673036
0.673048
0.673059
0.673059
0.673071
0.673083
0.673095
0.673106
0.673106
0.673118
0.67313
0.673142
0.673154
0.673154
0.673165
0.673177
0.673189
0.673201
0.673201
0.673213
0.673224
0.673236
0.673248
0.673248
0.67326
0.673272
0.673284
0.673296
0.673296
0.673307
0.673319
0.673331
0.673343
0.673343
0.673355
0.673367
0.673379
0.673391
0.673391
0.673403
0.673415
0.673426
0.673438
0.673438
0.67345
0.673462
0.673474
0.673486
0.673486
0.673498
0.67351
0.673522
0.673534
0.673534
0.673546
0.673558
0.67357
0.673582
0.673582
0.673594
0.673606
0.673618
0.67363
0.67363
0.673642
0.673654
0.673666
0.673678
0.673678
0.67369
0.673702
0.673715
0.673727
0.673727
0.673739
0.673751
0.673763
0.673775
0.673775
0.673787
0.673799
0.673811
0.673823
0.673823
0.673836
0.673848
0.67386
0.673872
0.673872
0.673884
0.673896
0.673909
0.673921
0.673921
0.673933
0.673945
0.673957
0.673969
0.673969
0.673982
0.673994
0.674006
0.674018
0.674018
0.674031
0.674043
0.674055
0.674067
0.674067
0.67408
0.674092
0.674104
0.674116
0.674116
0.674129
0.674141
0.674153
0.674166
0.674166
0.674178
0.67419
0.674202
0.674215
0.674215
0.674227
0.674239
0.674252
0.674264
0.674264
0.674276
0.674289
0.674301
0.674314
0.674314
0.674326
0.674338
0.674351
0.674363
0.674363
0.674375
0.674388
0.6744
0.674413
0.674413
0.674425
0.674438
0.67445
0.674462
0.674462
0.674475
0.674487
0.6745
0.674512
0.674512
0.674525
0.674537
0.67455
0.674562
0.674562
0.674575
0.674587
0.6746
0.674612
0.674612
0.674625
0.674637
0.67465
0.674662
0.674662
0.674675
0.674687
0.6747
0.674713
0.674713
0.674725
0.674738
0.67475
0.674763
0.674763
0.674775
0.674788
0.674801
0.674813
0.674813
0.674826
0.674839
0.674851
0.674864
0.674864
0.674876
0.674889
0.674902
0.674914
0.674914
0.674927
0.67494
0.674952
0.674965
0.674965
0.674978
0.674991
0.675003
0.675016
0.675016
0.675029
0.675041
0.675054
0.675067
0.675067
0.67508
0.675092
0.675105
0.675118
0.675118
0.675131
0.675143
0.675156
0.675169
0.675169
0.675182
0.675195
0.675207
0.67522
0.67522
0.675233
0.675246
0.675259
0.675272
0.675272
0.675284
0.675297
0.67531
0.675323
0.675323
0.675336
0.675349
0.675362
0.675374
0.675374
0.675387
0.6754
0.675413
0.675426
0.675426
0.675439
0.675452
0.675465
0.675478
0.675478
0.675491
0.675504
0.675517
0.67553
0.67553
0.675542
0.675555
0.675568
0.675581
0.675581
0.675594
0.675607
0.67562
0.675633
0.675633
0.675646
0.675659
0.675672
0.675686
0.675686
0.675699
0.675712
0.675725
0.675738
0.675738