<?xml version="1.0"?>
<VTKFile type="UnstructuredGrid" version="0.1" byte_order="LittleEndian">
<UnstructuredGrid>
<Piece NumberOfPoints="5000" NumberOfCells="4000">
<PointData Scalars="Reaction 0">
<DataArray type="Float32" Name="Reaction 0" format="ascii">
0.305248
0.305248
0.305248
0.305248
0.305248
0.305248
0.305248
0.305249
0.305249
0.305249
0.305249
0.305249
0.30525
0.30525
0.30525
0.30525
0.305251
0.305251
0.305252
0.305252
0.305252
0.305253
0.305253
0.305254
0.305254
0.305254
0.305255
0.305256
0.305256
0.305257
0.305257
0.305258
0.305259
0.30526
0.30526
0.30526
0.305261
0.305262
0.305263
0.305264
0.305264
0.305265
0.305266
0.305267
0.305269
0.305269
0.30527
0.305271
0.305272
0.305273
0.305273
0.305275
0.305276
0.305277
0.305279
0.305279
0.30528
0.305282
0.305283
0.305285
0.305285
0.305286
0.305288
0.305289
0.305291
0.305291
0.305293
0.305294
0.305296
0.305298
0.305298
0.3053
0.305302
0.305303
0.305305
0.305305
0.305307
0.305309
0.305311
0.305313
0.305313
0.305315
0.305317
0.30532
0.305322
0.305322
0.305324
0.305326
0.305328
0.305331
0.305331
0.305333
0.305335
0.305338
0.30534
0.30534
0.305342
0.305345
0.305347
0.30535
0.30535
0.305353
0.305355
0.305358
0.30536
0.30536
0.305363
0.305366
0.305369
0.305371
0.305371
0.305374
0.305377
0.30538
0.305383
0.305383
0.305386
0.305389
0.305392
0.305395
0.305395
0.305398
0.305401
0.305404
0.305407
0.305407
0.305411
0.305414
0.305417
0.30542
0.30542
0.305424
0.305427
0.30543
0.305434
0.305434
0.305437
0.305441
0.305444
0.305448
0.305448
0.305451
0.305455
0.305459
0.305462
0.305462
0.305466
0.30547
0.305474
0.305477
0.305477
0.305481
0.305485
0.305489
0.305493
0.305493
0.305497
0.305501
0.305505
0.305509
0.305509
0.305513
0.305517
0.305521
0.305526
0.305526
0.30553
0.305534
0.305538
0.305543
0.305543
0.305547
0.305551
0.305556
0.30556
0.30556
0.305565
0.305569
0.305574
0.305578
0.305578
0.305583
0.305588
0.305592
0.305597
0.305597
0.305602
0.305607
0.305611
0.305616
0.305616
0.305621
0.305626
0.305631
0.305636
0.305636
0.305641
0.305646
0.305651
0.305656
0.305656
0.305661
0.305666
0.305671
0.305677
0.305677
0.305682
0.305687
0.305692
0.305698
0.305698
0.305703
0.305709
0.305714
0.305719
0.305719
0.305725
0.30573
0.305736
0.305742
0.305742
0.305747
0.305753
0.305759
0.305764
0.305764
0.30577
0.305776
0.305782
0.305788
0.305788
0.305793
0.305799
0.305805
0.305811
0.305811
0.305817
0.305823
0.305829
0.305835
0.305835
0.305842
0.305848
0.305854
0.30586
0.30586
0.305866
0.305873
0.305879
0.305885
0.305885
0.305892
0.305898
0.305905
0.305911
0.305911
0.305918
0.305924
0.305931
0.305937
0.305937
0.305944
0.305951
0.305957
0.305964
0.305964
0.305971
0.305978
0.305985
0.305991
0.305991
0.305998
0.306005
0.306012
0.306019
0.306019
0.306026
0.306033
0.30604
0.306048
0.306048
0.306055
0.306062
0.306069
0.306076
0.306076
0.306084
0.306091
0.306098
0.306106
0.306106
0.306113
0.306121
0.306128
0.306136
0.306136
0.306143
0.306151
0.306158
0.306166
0.306166
0.306174
0.306181
0.306189
0.306197
0.306197
0.306205
0.306212
0.30622
0.306228
0.306228
0.306236
0.306244
0.306252
0.30626
0.30626
0.306268
0.306276
0.306284
0.306292
0.306292
0.3063
0.306309
0.306317
0.306325
0.306325
0.306333
0.306342
0.30635
0.306359
0.306359
0.306367
0.306375
0.306384
0.306392
0.306392
0.306401
0.30641
0.306418
0.306427
0.306427
0.306436
0.306444
0.306453
0.306462
0.306462
0.306471
0.306479
0.306488
0.306497
0.306497
0.306506
0.306515
0.306524
0.306533
0.306533
0.306542
0.306551
0.30656
0.30657
0.30657
0.306579
0.306588
0.306597
0.306607
0.306607
0.306616
0.306625
0.306635
0.306644
0.306644
0.306654
0.306663
0.306672
0.306682
0.306682
0.306692
0.306701
0.306711
0.306721
0.306721
0.30673
0.30674
0.30675
0.30676
0.30676
0.306769
0.306779
0.306789
0.306799
0.306799
0.306809
0.306819
0.306829
0.306839
0.306839
0.306849
0.306859
0.306869
0.30688
0.30688
0.30689
0.3069
0.30691
0.306921
0.306921
0.306931
0.306941
0.306952
0.306962
0.306962
0.306973
0.306983
0.306994
0.307004
0.307004
0.307015
0.307025
0.307036
0.307047
0.307047
0.307057
0.307068
0.307079
0.30709
0.30709
0.307101
0.307112
0.307122
0.307133
0.307133
0.307144
0.307155
0.307166
0.307177
0.307177
0.307189
0.3072
0.307211
0.307222
0.307222
0.307233
0.307245
0.307256
0.307267
0.307267
0.307278
0.30729
0.307301
0.307313
0.307313
0.307324
0.307336
0.307347
0.307359
0.307359
0.30737
0.307382
0.307394
0.307405
0.307405
0.307417
0.307429
0.307441
0.307453
0.307453
0.307464
0.307476
0.307488
0.3075
0.3075
0.307512
0.307524
0.307536
0.307548
0.307548
0.307561
0.307573
0.307585
0.307597
0.307597
0.307609
0.307622
0.307634
0.307646
0.307646
0.307659
0.307671
0.307683
0.307696
0.307696
0.307708
0.307721
0.307734
0.307746
0.307746
0.307759
0.307771
0.307784
0.307797
0.307797
0.30781
0.307822
0.307835
0.307848
0.307848
0.307861
0.307874
0.307887
0.3079
0.3079
0.307913
0.307926
0.307939
0.307952
0.307952
0.307965
0.307978
0.307991
0.308005
0.308005
0.308018
0.308031
0.308045
0.308058
0.308058
0.308071
0.308085
0.308098
0.308112
0.308112
0.308125
0.308139
0.308152
0.308166
0.308166
0.30818
0.308193
0.308207
0.308221
0.308221
0.308234
0.308248
0.308262
0.308276
0.308276
0.30829
0.308304
0.308318
0.308332
0.308332
0.308346
0.30836
0.308374
0.308388
0.308388
0.308402
0.308416
0.308431
0.308445
0.308445
0.308459
0.308473
0.308488
0.308502
0.308502
0.308517
0.308531
0.308545
0.30856
0.30856
0.308574
0.308589
0.308604
0.308618
0.308618
0.308633
0.308648
0.308662
0.308677
0.308677
0.308692
0.308707
0.308722
0.308736
0.308736
0.308751
0.308766
0.308781
0.308796
0.308796
0.308811
0.308826
0.308841
0.308857
0.308857
0.308872
0.308887
0.308902
0.308917
0.308917
0.308933
0.308948
0.308963
0.308979
0.308979
0.308994
0.30901
0.309025
0.309041
0.309041
0.309056
0.309072
0.309087
0.309103
0.309103
0.309119
0.309134
0.30915
0.309166
0.309166
0.309182
0.309198
0.309213
0.309229
0.309229
0.309245
0.309261
0.309277
0.309293
0.309293
0.309309
0.309325
0.309341
0.309358
0.309358
0.309374
0.30939
0.309406
0.309423
0.309423
0.309439
0.309455
0.309472
0.309488
0.309488
0.309504
0.309521
0.309537
0.309554
0.309554
0.30957
0.309587
0.309604
0.30962
0.30962
0.309637
0.309654
0.309671
0.309687
0.309687
0.309704
0.309721
0.309738
0.309755
0.309755
0.309772
0.309789
0.309806
0.309823
0.309823
0.30984
0.309857
0.309874
0.309891
0.309891
0.309908
0.309926
0.309943
0.30996
0.30996
0.309977
0.309995
0.310012
0.31003
0.31003
0.310047
0.310065
0.310082
0.3101
0.3101
0.310117
0.310135
0.310152
0.31017
0.31017
0.310188
0.310206
0.310223
0.310241
0.310241
0.310259
0.310277
0.310295
0.310313
0.310313
0.310331
0.310349
0.310367
0.310385
0.310385
0.310403
0.310421
0.310439
0.310457
0.310457
0.310475
0.310494
0.310512
0.31053
0.31053
0.310549
0.310567
0.310585
0.310604
0.310604
0.310622
0.310641
0.310659
0.310678
0.310678
0.310696
0.310715
0.310734
0.310752
0.310752
0.310771
0.31079
0.310809
0.310827
0.310827
0.310846
0.310865
0.310884
0.310903
0.310903
0.310922
0.310941
0.31096
0.310979
0.310979
0.310998
0.311017
0.311036
0.311056
0.311056
0.311075
0.311094
0.311113
0.311133
0.311133
0.311152
0.311171
0.311191
0.31121
0.31121
0.31123
0.311249
0.311269
0.311288
0.311288
0.311308
0.311328
0.311347
0.311367
0.311367
0.311387
0.311406
0.311426
0.311446
0.311446
0.311466
0.311486
0.311506
0.311526
0.311526
0.311546
0.311566
0.311586
0.311606
0.311606
0.311626
0.311646
0.311666
0.311686
0.311686
0.311707
0.311727
0.311747
0.311768
0.311768
0.311788
0.311808
0.311829
0.311849
0.311849
0.31187
0.31189
0.311911
0.311931
0.311931
0.311952
0.311973
0.311993
0.312014
0.312014
0.312035
0.312055
0.312076
0.312097
0.312097
0.312118
0.312139
0.31216
0.312181
0.312181
0.312202
0.312223
0.312244
0.312265
0.312265
0.312286
0.312307
0.312328
0.31235
0.31235
0.312371
0.312392
0.312413
0.312435
0.312435
0.312456
0.312478
0.312499
0.31252
0.31252
0.312542
0.312563
0.312585
0.312607
0.312607
0.312628
0.31265
0.312672
0.312693
0.312693
0.312715
0.312737
0.312759
0.312781
0.312781
0.312802
0.312824
0.312846
0.312868
0.312868
0.31289
0.312912
0.312934
0.312956
0.312956
0.312979
0.313001
0.313023
0.313045
0.313045
0.313067
0.31309
0.313112
0.313134
0.313134
0.313157
0.313179
0.313202
0.313224
0.313224
0.313247
0.313269
0.313292
0.313314
0.313314
0.313337
0.31336
0.313382
0.313405
0.313405
0.313428
0.313451
0.313473
0.313496
0.313496
0.313519
0.313542
0.313565
0.313588
0.313588
0.313611
0.313634
0.313657
0.31368
0.31368
0.313703
0.313727
0.31375
0.313773
0.313773
0.313796
0.31382
0.313843
0.313866
0.313866
0.31389
0.313913
0.313937
0.31396
0.31396
0.313984
0.314007
0.314031
0.314054
0.314054
0.314078
0.314102
0.314125
0.314149
0.314149
0.314173
0.314197
0.31422
0.314244
0.314244
0.314268
0.314292
0.314316
0.31434
0.31434
0.314364
0.314388
0.314412
0.314436
0.314436
0.314461
0.314485
0.314509
0.314533
0.314533
0.314557
0.314582
0.314606
0.31463
0.31463
0.314655
0.314679
0.314704
0.314728
0.314728
0.314753
0.314777
0.314802
0.314827
0.314827
0.314851
0.314876
0.314901
0.314925
0.314925
0.31495
0.314975
0.315
0.315025
0.315025
0.31505
0.315074
0.315099
0.315124
0.315124
0.315149
0.315175
0.3152
0.315225
0.315225
0.31525
0.315275
0.3153
0.315326
0.315326
0.315351
0.315376
0.315402
0.315427
0.315427
0.315452
0.315478
0.315503
0.315529
0.315529
0.315554
0.31558
0.315605
0.315631
0.315631
0.315657
0.315682
0.315708
0.315734
0.315734
0.31576
0.315785
0.315811
0.315837
0.315837
0.315863
0.315889
0.315915
0.315941
0.315941
0.315967
0.315993
0.316019
0.316045
0.316045
0.316072
0.316098
0.316124
0.31615
0.31615
0.316177
0.316203
0.316229
0.316256
0.316256
0.316282
0.316308
0.316335
0.316361
0.316361
0.316388
0.316415
0.316441
0.316468
0.316468
0.316494
0.316521
0.316548
0.316575
0.316575
0.316601
0.316628
0.316655
0.316682
0.316682
0.316709
0.316736
0.316763
0.31679
0.31679
0.316817
0.316844
0.316871
0.316898
0.316898
0.316925
0.316953
0.31698
0.317007
0.317007
0.317034
0.317062
0.317089
0.317116
0.317116
0.317144
0.317171
0.317199
0.317226
0.317226
0.317254
0.317281
0.317309
0.317337
0.317337
0.317364
0.317392
0.31742
0.317448
0.317448
0.317475
0.317503
0.317531
0.317559
0.317559
0.317587
0.317615
0.317643
0.317671
0.317671
0.317699
0.317727
0.317755
0.317783
0.317783
0.317811
0.31784
0.317868
0.317896
0.317896
0.317924
0.317953
0.317981
0.318009
0.318009
0.318038
0.318066
0.318095
0.318123
0.318123
0.318152
0.31818
0.318209
0.318238
0.318238
0.318266
0.318295
0.318324
0.318353
0.318353
0.318381
0.31841
0.318439
0.318468
0.318468
0.318497
0.318526
0.318555
0.318584
0.318584
0.318613
0.318642
0.318671
0.3187
0.3187
0.318729
0.318759
0.318788
0.318817
0.318817
0.318846
0.318876
0.318905
0.318935
0.318935
0.318964
0.318993
0.319023
0.319052
0.319052
0.319082
0.319112
0.319141
0.319171
0.319171
0.3192
0.31923
0.31926
0.31929
0.31929
0.31932
0.319349
0.319379
0.319409
0.319409
0.319439
0.319469
0.319499
0.319529
0.319529
0.319559
0.319589
0.319619
0.319649
0.319649
0.31968
0.31971
0.31974
0.31977
0.31977
0.319801
0.319831
0.319861
0.319892
0.319892
0.319922
0.319953
0.319983
0.320014
0.320014
0.320044
0.320075
0.320105
0.320136
0.320136
0.320167
0.320197
0.320228
0.320259
0.320259
0.32029
0.320321
0.320351
0.320382
0.320382
0.320413
0.320444
0.320475
0.320506
0.320506
0.320537
0.320568
0.320599
0.320631
0.320631
0.320662
0.320693
0.320724
0.320756
0.320756
0.320787
0.320818
0.32085
0.320881
0.320881
0.320912
0.320944
0.320975
0.321007
0.321007
0.321038
0.32107
0.321102
0.321133
0.321133
0.321165
0.321197
0.321228
0.32126
0.32126
0.321292
0.321324
0.321356
0.321388
0.321388
0.321419
0.321451
0.321483
0.321515
0.321515
0.321548
0.32158
0.321612
0.321644
0.321644
0.321676
0.321708
0.32174
0.321773
0.321773
0.321805
0.321837
0.32187
0.321902
0.321902
0.321935
0.321967
0.322
0.322032
0.322032
0.322065
0.322097
0.32213
0.322162
0.322162
0.322195
0.322228
0.322261
0.322293
0.322293
0.322326
0.322359
0.322392
0.322425
0.322425
0.322458
0.322491
0.322524
0.322557
0.322557
0.32259
0.322623
0.322656
0.322689
0.322689
0.322722
0.322755
0.322789
0.322822
0.322822
0.322855
0.322889
0.322922
0.322955
0.322955
0.322989
0.323022
0.323056
0.323089
0.323089
0.323123
0.323156
0.32319
0.323224
0.323224
0.323257
0.323291
0.323325
0.323358
0.323358
0.323392
0.323426
0.32346
0.323494
0.323494
0.323528
0.323562
0.323596
0.32363
0.32363
0.323664
0.323698
0.323732
0.323766
0.323766
0.3238
0.323835
0.323869
0.323903
0.323903
0.323937
0.323972
0.324006
0.32404
0.32404
0.324075
0.324109
0.324144
0.324178
0.324178
0.324213
0.324247
0.324282
0.324317
0.324317
0.324351
0.324386
0.324421
0.324456
0.324456
0.32449
0.324525
0.32456
0.324595
0.324595
0.32463
0.324665
0.3247
0.324735
0.324735
0.32477
0.324805
0.32484
0.324875
0.324875
0.32491
0.324945
0.324981
0.325016
0.325016
0.325051
0.325087
0.325122
0.325157
0.325157
0.325193
0.325228
0.325264
0.325299
0.325299
0.325335
0.32537
0.325406
0.325442
0.325442
0.325477
0.325513
0.325549
0.325584
0.325584
0.32562
0.325656
0.325692
0.325728
0.325728
0.325764
0.3258
0.325836
0.325872
0.325872
0.325908
0.325944
0.32598
0.326016
0.326016
0.326052
0.326088
0.326124
0.326161
0.326161
0.326197
0.326233
0.32627
0.326306
0.326306
0.326342
0.326379
0.326415
0.326452
0.326452
0.326488
0.326525
0.326562
0.326598
0.326598
0.326635
0.326672
0.326708
0.326745
0.326745
0.326782
0.326819
0.326855
0.326892
0.326892
0.326929
0.326966
0.327003
0.32704
0.32704
0.327077
0.327114
0.327151
0.327188
0.327188
0.327226
0.327263
0.3273
0.327337
0.327337
0.327375
0.327412
0.327449
0.327487
0.327487
0.327524
0.327561
0.327599
0.327636
0.327636
0.327674
0.327711
0.327749
0.327787
0.327787
0.327824
0.327862
0.3279
0.327937
0.327937
0.327975
0.328013
0.328051
0.328089
0.328089
0.328127
0.328165
0.328203
0.328241
0.328241
0.328279
0.328317
0.328355
0.328393
0.328393
0.328431
0.328469
0.328507
0.328546
0.328546
0.328584
0.328622
0.32866
0.328699
0.328699
0.328737
0.328776
0.328814
0.328853
0.328853
0.328891
0.32893
0.328968
0.329007
0.329007
0.329045
0.329084
0.329123
0.329162
0.329162
0.3292
0.329239
0.329278
0.329317
0.329317
0.329356
0.329395
0.329434
0.329473
0.329473
0.329512
0.329551
0.32959
0.329629
0.329629
0.329668
0.329707
0.329746
0.329785
0.329785
0.329825
0.329864
0.329903
0.329943
0.329943
0.329982
0.330022
0.330061
0.3301
0.3301
0.33014
0.330179
0.330219
0.330259
0.330259
0.330298
0.330338
0.330378
0.330417
0.330417
0.330457
0.330497
0.330537
0.330577
0.330577
0.330616
0.330656
0.330696
0.330736
0.330736
0.330776
0.330816
0.330856
0.330896
0.330896
0.330937
0.330977
0.331017
0.331057
0.331057
0.331097
0.331138
0.331178
0.331218
0.331218
0.331259
0.331299
0.331339
0.33138
0.33138
0.33142
0.331461
0.331501
0.331542
0.331542
0.331583
0.331623
0.331664
0.331705
0.331705
0.331745
0.331786
0.331827
0.331868
0.331868
0.331909
0.33195
0.33199
0.332031
0.332031
0.332072
0.332113
0.332154
0.332196
0.332196
0.332237
0.332278
0.332319
0.33236
0.33236
0.332401
0.332443
0.332484
0.332525
0.332525
0.332567
0.332608
0.332649
0.332691
0.332691
0.332732
0.332774
0.332815
0.332857
0.332857
0.332899
0.33294
0.332982
0.333024
0.333024
0.333065
0.333107
0.333149
0.333191
0.333191
0.333232
0.333274
0.333316
0.333358
0.333358
0.3334
0.333442
0.333484
0.333526
0.333526
0.333568
0.33361
0.333653
0.333695
0.333695
0.333737
0.333779
0.333822
0.333864
0.333864
0.333906
0.333949
0.333991
0.334033
0.334033
0.334076
0.334118
0.334161
0.334203
0.334203
0.334246
0.334289
0.334331
0.334374
0.334374
0.334417
0.334459
0.334502
0.334545
0.334545
0.334588
0.334631
0.334674
0.334716
0.334716
0.334759
0.334802
0.334845
0.334888
0.334888
0.334931
0.334975
0.335018
0.335061
0.335061
0.335104
0.335147
0.335191
0.335234
0.335234
0.335277
0.335321
0.335364
0.335407
0.335407
0.335451
0.335494
0.335538
0.335581
0.335581
0.335625
0.335668
0.335712
0.335756
0.335756
0.335799
0.335843
0.335887
0.335931
0.335931
0.335974
0.336018
0.336062
0.336106
0.336106
0.33615
0.336194
0.336238
0.336282
0.336282
0.336326
0.33637
0.336414
0.336458
0.336458
0.336503
0.336547
0.336591
0.336635
0.336635
0.33668
0.336724
0.336768
0.336813
0.336813
0.336857
0.336902
0.336946
0.336991
0.336991
0.337035
0.33708
0.337124
0.337169
0.337169
0.337214
0.337258
0.337303
0.337348
0.337348
0.337393
0.337437
0.337482
0.337527
0.337527
0.337572
0.337617
0.337662
0.337707
0.337707
0.337752
0.337797
0.337842
0.337887
0.337887
0.337932
0.337978
0.338023
0.338068
0.338068
0.338113
0.338159
0.338204
0.338249
0.338249
0.338295
0.33834
0.338386
0.338431
0.338431
0.338477
0.338522
0.338568
0.338613
0.338613
0.338659
0.338705
0.33875
0.338796
0.338796
0.338842
0.338888
0.338933
0.338979
0.338979
0.339025
0.339071
0.339117
0.339163
0.339163
0.339209
0.339255
0.339301
0.339347
0.339347
0.339393
0.33944
0.339486
0.339532
0.339532
0.339578
0.339625
0.339671
0.339717
0.339717
0.339764
0.33981
0.339856
0.339903
0.339903
0.339949
0.339996
0.340042
0.340089
0.340089
0.340136
0.340182
0.340229
0.340276
0.340276
0.340322
0.340369
0.340416
0.340463
0.340463
0.34051
0.340557
0.340604
0.34065
0.34065
0.340697
0.340744
0.340792
0.340839
0.340839
0.340886
0.340933
0.34098
0.341027
0.341027
0.341074
0.341122
0.341169
0.341216
0.341216
0.341264
0.341311
0.341358
0.341406
0.341406
0.341453
0.341501
0.341548
0.341596
0.341596
0.341644
0.341691
0.341739
0.341786
0.341786
0.341834
0.341882
0.34193
0.341978
0.341978
0.342025
0.342073
0.342121
0.342169
0.342169
0.342217
0.342265
0.342313
0.342361
0.342361
0.342409
0.342457
0.342505
0.342554
0.342554
0.342602
0.34265
0.342698
0.342747
0.342747
0.342795
0.342843
0.342892
0.34294
0.34294
0.342988
0.343037
0.343085
0.343134
0.343134
0.343182
0.343231
0.34328
0.343328
0.343328
0.343377
0.343426
0.343475
0.343523
0.343523
0.343572
0.343621
0.34367
0.343719
0.343719
0.343768
0.343817
0.343866
0.343915
0.343915
0.343964
0.344013
0.344062
0.344111
0.344111
0.34416
0.344209
0.344259
0.344308
0.344308
0.344357
0.344406
0.344456
0.344505
0.344505
0.344555
0.344604
0.344653
0.344703
0.344703
0.344753
0.344802
0.344852
0.344901
0.344901
0.344951
0.345001
0.34505
0.3451
0.3451
0.34515
0.3452
0.345249
0.345299
0.345299
0.345349
0.345399
0.345449
0.345499
0.345499
0.345549
0.345599
0.345649
0.345699
0.345699
0.34575
0.3458
0.34585
0.3459
0.3459
0.34595
0.346001
0.346051
0.346101
0.346101
0.346152
0.346202
0.346253
0.346303
0.346303
0.346354
0.346404
0.346455
0.346505
0.346505
0.346556
0.346606
0.346657
0.346708
0.346708
0.346759
0.346809
0.34686
0.346911
0.346911
0.346962
0.347013
0.347064
0.347115
0.347115
0.347166
0.347217
0.347268
0.347319
0.347319
0.34737
0.347421
0.347472
0.347523
0.347523
0.347575
0.347626
0.347677
0.347728
0.347728
0.34778
0.347831
0.347883
0.347934
0.347934
0.347985
0.348037
0.348088
0.34814
0.34814
0.348192
0.348243
0.348295
0.348347
0.348347
0.348398
0.34845
0.348502
0.348554
0.348554
0.348605
0.348657
0.348709
0.348761
0.348761
0.348813
0.348865
0.348917
0.348969
0.348969
0.349021
0.349073
0.349125
0.349177
0.349177
0.34923
0.349282
0.349334
0.349386
0.349386
0.349439
0.349491
0.349543
0.349596
0.349596
0.349648
0.349701
0.349753
0.349806
0.349806
0.349858
0.349911
0.349963
0.350016
0.350016
0.350069
0.350121
0.350174
0.350227
0.350227
0.35028
0.350332
0.350385
0.350438
0.350438
0.350491
0.350544
0.350597
0.35065
0.35065
0.350703
0.350756
0.350809
0.350862
0.350862
0.350915
0.350969
0.351022
0.351075
0.351075
0.351128
0.351182
0.351235
0.351288
0.351288
0.351342
0.351395
0.351449
0.351502
0.351502
0.351556
0.351609
0.351663
0.351716
0.351716
0.35177
0.351824
0.351877
0.351931
0.351931
0.351985
0.352039
0.352092
0.352146
0.352146
0.3522
0.352254
0.352308
0.352362
0.352362
0.352416
0.35247
0.352524
0.352578
0.352578
0.352632
0.352686
0.35274
0.352795
0.352795
0.352849
0.352903
0.352957
0.353012
0.353012
0.353066
0.35312
0.353175
0.353229
0.353229
0.353284
0.353338
0.353393
0.353447
0.353447
0.353502
0.353556
0.353611
0.353666
0.353666
0.35372
0.353775
0.35383
0.353885
0.353885
0.35394
0.353994
0.354049
0.354104
0.354104
0.354159
0.354214
0.354269
0.354324
0.354324
0.354379
0.354434
0.354489
0.354545
0.354545
0.3546
0.354655
0.35471
0.354766
0.354766
0.354821
0.354876
0.354932
0.354987
0.354987
0.355042
0.355098
0.355153
0.355209
0.355209
0.355264
0.35532
0.355375
0.355431
0.355431
0.355487
0.355542
0.355598
0.355654
0.355654
0.35571
0.355766
0.355821
0.355877
0.355877
0.355933
0.355989
0.356045
0.356101
0.356101
0.356157
0.356213
0.356269
0.356325
0.356325
0.356381
0.356438
0.356494
0.35655
0.35655
0.356606
0.356663
0.356719
0.356775
0.356775
0.356832
0.356888
0.356944
0.357001
0.357001
0.357057
0.357114
0.35717
0.357227
0.357227
0.357284
0.35734
0.357397
0.357454
0.357454
0.35751
0.357567
0.357624
0.357681
0.357681
0.357738
0.357794
0.357851
0.357908
0.357908
0.357965
0.358022
0.358079
0.358136
0.358136
0.358193
0.358251
0.358308
0.358365
0.358365
0.358422
0.358479
0.358537
0.358594
0.358594
0.358651
0.358709
0.358766
0.358823
0.358823
0.358881
0.358938
0.358996
0.359053
0.359053
0.359111
0.359168
0.359226
0.359284
0.359284
0.359341
0.359399
0.359457
0.359515
0.359515
0.359572
0.35963
0.359688
0.359746
0.359746
0.359804
0.359862
0.35992
0.359978
0.359978
0.360036
0.360094
0.360152
0.36021
0.36021
0.360268
0.360327
0.360385
0.360443
0.360443
0.360501
0.36056
0.360618
0.360676
0.360676
0.360735
0.360793
0.360852
0.36091
0.36091
0.360969
0.361027
0.361086
0.361144
0.361144
0.361203
0.361262
0.36132
0.361379
0.361379
0.361438
0.361496
0.361555
0.361614
0.361614
0.361673
0.361732
0.361791
0.36185
0.36185
0.361909
0.361968
0.362027
0.362086
0.362086
0.362145
0.362204
0.362263
0.362322
0.362322
0.362382
0.362441
0.3625
0.362559
0.362559
0.362619
0.362678
0.362738
0.362797
0.362797
0.362856
0.362916
0.362975
0.363035
0.363035
0.363095
0.363154
0.363214
0.363273
0.363273
0.363333
0.363393
0.363453
0.363512
0.363512
0.363572
0.363632
0.363692
0.363752
0.363752
0.363812
0.363872
0.363932
0.363992
0.363992
0.364052
0.364112
0.364172
0.364232
0.364232
0.364292
0.364352
0.364413
0.364473
0.364473
0.364533
0.364593
0.364654
0.364714
0.364714
0.364775
0.364835
0.364895
0.364956
0.364956
0.365016
0.365077
0.365138
0.365198
0.365198
0.365259
0.365319
0.36538
0.365441
0.365441
0.365502
0.365562
0.365623
0.365684
0.365684
0.365745
0.365806
0.365867
0.365928
0.365928
0.365989
0.36605
0.366111
0.366172
0.366172
0.366233
0.366294
0.366355
0.366416
0.366416
0.366478
0.366539
0.3666
0.366662
0.366662
0.366723
0.366784
0.366846
0.366907
0.366907
0.366968
0.36703
0.367091
0.367153
0.367153
0.367215
0.367276
0.367338
0.367399
0.367399
0.367461
0.367523
0.367585
0.367646
0.367646
0.367708
0.36777
0.367832
0.367894
0.367894
0.367956
0.368018
0.36808
0.368142
0.368142
0.368204
0.368266
0.368328
0.36839
0.36839
0.368452
0.368514
0.368577
0.368639
0.368639
0.368701
0.368763
0.368826
0.368888
0.368888
0.368951
0.369013
0.369075
0.369138
0.369138
0.3692
0.369263
0.369325
0.369388
0.369388
0.369451
0.369513
0.369576
0.369639
0.369639
0.369701
0.369764
0.369827
0.36989
0.36989
0.369953
0.370016
0.370079
0.370142
0.370142
0.370204
0.370267
0.370331
0.370394
0.370394
0.370457
0.37052
0.370583
0.370646
0.370646
0.370709
0.370773
0.370836
0.370899
0.370899
0.370962
0.371026
0.371089
0.371153
0.371153
0.371216
0.37128
0.371343
0.371407
0.371407
0.37147
0.371534
0.371597
0.371661
0.371661
0.371725
0.371788
0.371852
0.371916
0.371916
0.37198
0.372043
0.372107
0.372171
0.372171
0.372235
0.372299
0.372363
0.372427
0.372427
0.372491
0.372555
0.372619
0.372683
0.372683
0.372747
0.372812
0.372876
0.37294
0.37294
0.373004
0.373069
0.373133
0.373197
0.373197
0.373262
0.373326
0.37339
0.373455
0.373455
0.373519
0.373584
0.373648
0.373713
0.373713
0.373778
0.373842
0.373907
0.373972
0.373972
0.374036
0.374101
0.374166
0.374231
0.374231
0.374296
0.37436
0.374425
0.37449
0.37449
0.374555
0.37462
0.374685
0.37475
0.37475
0.374815
0.37488
0.374945
0.375011
0.375011
0.375076
0.375141
0.375206
0.375272
0.375272
0.375337
0.375402
0.375468
0.375533
0.375533
0.375598
0.375664
0.375729
0.375795
0.375795
0.37586
0.375926
0.375991
0.376057
0.376057
0.376123
0.376188
0.376254
0.37632
0.37632
0.376386
0.376451
0.376517
0.376583
0.376583
0.376649
0.376715
0.376781
0.376847
0.376847
0.376913
0.376979
0.377045
0.377111
0.377111
0.377177
0.377243
0.377309
0.377376
0.377376
0.377442
0.377508
0.377574
0.377641
0.377641
0.377707
0.377773
0.37784
0.377906
0.377906
0.377973
0.378039
0.378106
0.378172
0.378172
0.378239
0.378305
0.378372
0.378439
0.378439
0.378505
0.378572
0.378639
0.378706
0.378706
0.378772
0.378839
0.378906
0.378973
0.378973
0.37904
0.379107
0.379174
0.379241
0.379241
0.379308
0.379375
0.379442
0.379509
0.379509
0.379576
0.379643
0.379711
0.379778
0.379778
0.379845
0.379912
0.37998
0.380047
0.380047
0.380115
0.380182
0.380249
0.380317
0.380317
0.380384
0.380452
0.380519
0.380587
0.380587
0.380655
0.380722
0.38079
0.380858
0.380858
0.380925
0.380993
0.381061
0.381129
0.381129
0.381196
0.381264
0.381332
0.3814
0.3814
0.381468
0.381536
0.381604
0.381672
0.381672
0.38174
0.381808
0.381876
0.381945
0.381945
0.382013
0.382081
0.382149
0.382218
0.382218
0.382286
0.382354
0.382423
0.382491
0.382491
0.382559
0.382628
0.382696
0.382765
0.382765
0.382833
0.382902
0.38297
0.383039
0.383039
0.383108
0.383176
0.383245
0.383314
0.383314
0.383382
0.383451
0.38352
0.383589
0.383589
0.383658
0.383727
0.383796
0.383865
0.383865
0.383934
0.384003
0.384072
0.384141
0.384141
0.38421
0.384279
0.384348
0.384417
0.384417
0.384486
0.384556
0.384625
0.384694
0.384694
0.384764
0.384833
0.384902
0.384972
0.384972
0.385041
0.385111
0.38518
0.38525
0.38525
0.385319
0.385389
0.385458
0.385528
0.385528
0.385598
0.385667
0.385737
0.385807
0.385807
0.385877
0.385947
0.386016
0.386086
0.386086
0.386156
0.386226
0.386296
0.386366
0.386366
0.386436
0.386506
0.386576
0.386646
0.386646
0.386716
0.386787
0.386857
0.386927
0.386927
0.386997
0.387067
0.387138
0.387208
0.387208
0.387278
0.387349
0.387419
0.38749
0.38749
0.38756
0.387631
0.387701
0.387772
0.387772
0.387842
0.387913
0.387984
0.388054
0.388054
0.388125
0.388196
0.388266
0.388337
0.388337
0.388408
0.388479
0.38855
0.388621
0.388621
0.388691
0.388762
0.388833
0.388904
0.388904
0.388975
0.389047
0.389118
0.389189
0.389189
0.38926
0.389331
0.389402
0.389473
0.389473
0.389545
0.389616
0.389687
0.389759
0.389759
0.38983
0.389901
0.389973
0.390044
0.390044
0.390116
0.390187
0.390259
0.390331
0.390331
0.390402
0.390474
0.390545
0.390617
0.390617
0.390689
0.390761
0.390832
0.390904
0.390904
0.390976
0.391048
0.39112
0.391192
0.391192
0.391264
0.391336
0.391408
0.39148
0.39148
0.391552
0.391624
0.391696
0.391768
0.391768
0.39184
0.391912
0.391985
0.392057
0.392057
0.392129
0.392201
0.392274
0.392346
0.392346
0.392418
0.392491
0.392563
0.392636
0.392636
0.392708
0.392781
0.392853
0.392926
0.392926
0.392999
0.393071
0.393144
0.393217
0.393217
0.393289
0.393362
0.393435
0.393508
0.393508
0.393581
0.393654
0.393726
0.393799
0.393799
0.393872
0.393945
0.394018
0.394091
0.394091
0.394164
0.394238
0.394311
0.394384
0.394384
0.394457
0.39453
0.394603
0.394677
0.394677
0.39475
0.394823
0.394897
0.39497
0.39497
0.395043
0.395117
0.39519
0.395264
0.395264
0.395337
0.395411
0.395484
0.395558
0.395558
0.395632
0.395705
0.395779
0.395853
0.395853
0.395927
0.396
0.396074
0.396148
0.396148
0.396222
0.396296
0.39637
0.396444
0.396444
0.396518
0.396592
0.396666
0.39674
0.39674
0.396814
0.396888
0.396962
0.397036
0.397036
0.39711
0.397184
0.397259
0.397333
0.397333
0.397407
0.397482
0.397556
0.39763
0.39763
0.397705
0.397779
0.397854
0.397928
0.397928
0.398003
0.398077
0.398152
0.398227
0.398227
0.398301
0.398376
0.398451
0.398525
0.398525
0.3986
0.398675
0.39875
0.398824
0.398824
0.398899
0.398974
0.399049
0.399124
0.399124
0.399199
0.399274
0.399349
0.399424
0.399424
0.399499
0.399574
0.39965
0.399725
0.399725
0.3998
0.399875
0.39995
0.400026
0.400026
0.400101
0.400176
0.400252
0.400327
0.400327
0.400403
0.400478
0.400553
0.400629
0.400629
0.400704
0.40078
0.400856
0.400931
0.400931
0.401007
0.401083
0.401158
0.401234
0.401234
0.40131
0.401386
0.401461
0.401537
0.401537
0.401613
0.401689
0.401765
0.401841
0.401841
0.401917
0.401993
0.402069
0.402145
0.402145
0.402221
0.402297
0.402373
0.402449
0.402449
0.402526
0.402602
0.402678
0.402754
0.402754
0.402831
0.402907
0.402983
0.40306
0.40306
0.403136
0.403213
0.403289
0.403366
0.403366
0.403442
0.403519
0.403595
0.403672
0.403672
0.403749
0.403825
0.403902
0.403979
0.403979
0.404056
0.404132
0.404209
0.404286
0.404286
0.404363
0.40444
0.404517
0.404594
0.404594
0.404671
0.404748
0.404825
0.404902
0.404902
0.404979
0.405056
0.405133
0.40521
0.40521
0.405287
0.405365
0.405442
0.405519
0.405519
0.405597
0.405674
0.405751
0.405829
0.405829
0.405906
0.405983
0.406061
0.406138
0.406138
0.406216
0.406294
0.406371
0.406449
0.406449
0.406526
0.406604
0.406682
0.40676
0.40676
0.406837
0.406915
0.406993
0.407071
0.407071
0.407149
0.407226
0.407304
0.407382
0.407382
0.40746
0.407538
0.407616
0.407694
0.407694
0.407772
0.407851
0.407929
0.408007
0.408007
0.408085
0.408163
0.408242
0.40832
0.40832
0.408398
0.408476
0.408555
0.408633
0.408633
0.408712
0.40879
0.408869
0.408947
0.408947
0.409026
0.409104
0.409183
0.409261
0.409261
0.40934
0.409419
0.409497
0.409576
0.409576
0.409655
0.409734
0.409812
0.409891
0.409891
0.40997
0.410049
0.410128
0.410207
0.410207
0.410286
0.410365
0.410444
0.410523
0.410523
0.410602
0.410681
0.41076
0.410839
0.410839
0.410918
0.410998
0.411077
0.411156
0.411156
0.411235
0.411315
0.411394
0.411473
0.411473
0.411553
0.411632
0.411712
0.411791
0.411791
0.411871
0.41195
0.41203
0.412109
0.412109
0.412189
0.412269
0.412348
0.412428
0.412428
0.412508
0.412588
0.412667
0.412747
0.412747
0.412827
0.412907
0.412987
0.413067
0.413067
0.413147
0.413227
0.413307
0.413387
0.413387
0.413467
0.413547
0.413627
0.413707
0.413707
0.413787
0.413867
0.413948
0.414028
0.414028
0.414108
0.414188
0.414269
0.414349
0.414349
0.41443
0.41451
0.41459
0.414671
0.414671
0.414751
0.414832
0.414912
0.414993
0.414993
0.415074
0.415154
0.415235
0.415316
0.415316
0.415396
0.415477
0.415558
0.415639
0.415639
0.415719
0.4158
0.415881
0.415962
0.415962
0.416043
0.416124
0.416205
0.416286
0.416286
0.416367
0.416448
0.416529
0.41661
0.41661
0.416691
0.416773