<?xml version="1.0"?>
<VTKFile type="UnstructuredGrid" version="0.1" byte_order="LittleEndian">
<UnstructuredGrid>
<Piece NumberOfPoints="5000" NumberOfCells="4000">
<PointData Scalars="Reaction 0">
<DataArray type="Float32" Name="Reaction 0" format="ascii">
0.676288
0.676288
0.676288
0.676288
0.676288
0.676288
0.676288
0.676288
0.676288
0.676288
0.676288
0.676288
0.676288
0.676288
0.676288
0.676288
0.676288
0.676288
0.676288
0.676289
0.676289
0.676289
0.676289
0.676289
0.676289
0.676289
0.676289
0.676289
0.676289
0.676289
0.676289
0.676289
0.67629
0.67629
0.67629
0.67629
0.67629
0.67629
0.67629
0.67629
0.67629
0.676291
0.676291
0.676291
0.676291
0.676291
0.676291
0.676291
0.676292
0.676292
0.676292
0.676292
0.676292
0.676292
0.676293
0.676293
0.676293
0.676293
0.676293
0.676294
0.676294
0.676294
0.676294
0.676294
0.676295
0.676295
0.676295
0.676295
0.676295
0.676296
0.676296
0.676296
0.676296
0.676297
0.676297
0.676297
0.676297
0.676297
0.676298
0.676298
0.676298
0.676298
0.676299
0.676299
0.676299
0.676299
0.6763
0.6763
0.6763
0.676301
0.676301
0.676301
0.676301
0.676302
0.676302
0.676302
0.676303
0.676303
0.676303
0.676304
0.676304
0.676304
0.676305
0.676305
0.676305
0.676305
0.676306
0.676306
0.676307
0.676307
0.676307
0.676308
0.676308
0.676308
0.676309
0.676309
0.676309
0.67631
0.67631
0.676311
0.676311
0.676311
0.676312
0.676312
0.676313
0.676313
0.676313
0.676314
0.676314
0.676315
0.676315
0.676315
0.676316
0.676316
0.676317
0.676317
0.676317
0.676318
0.676318
0.676319
0.676319
0.67632
0.67632
0.676321
0.676321
0.676321
0.676322
0.676322
0.676323
0.676324
0.676324
0.676324
0.676325
0.676325
0.676326
0.676326
0.676327
0.676327
0.676328
0.676329
0.676329
0.676329
0.67633
0.67633
0.676331
0.676331
0.676332
0.676332
0.676333
0.676334
0.676334
0.676334
0.676335
0.676336
0.676337
0.676337
0.676337
0.676338
0.676339
0.676339
0.676339
0.67634
0.676341
0.676342
0.676342
0.676342
0.676343
0.676344
0.676344
0.676345
0.676345
0.676346
0.676347
0.676348
0.676348
0.676348
0.676349
0.67635
0.676351
0.676351
0.676351
0.676352
0.676353
0.676354
0.676355
0.676355
0.676355
0.676356
0.676357
0.676358
0.676358
0.676359
0.67636
0.67636
0.676361
0.676361
0.676362
0.676363
0.676364
0.676365
0.676365
0.676366
0.676367
0.676367
0.676368
0.676368
0.676369
0.67637
0.676371
0.676372
0.676372
0.676373
0.676374
0.676375
0.676376
0.676376
0.676377
0.676378
0.676378
0.676379
0.676379
0.67638
0.676381
0.676382
0.676383
0.676383
0.676384
0.676385
0.676386
0.676387
0.676387
0.676388
0.676389
0.67639
0.676391
0.676391
0.676392
0.676393
0.676394
0.676395
0.676395
0.676396
0.676397
0.676398
0.676399
0.676399
0.676401
0.676402
0.676403
0.676404
0.676404
0.676405
0.676406
0.676407
0.676408
0.676408
0.676409
0.67641
0.676411
0.676412
0.676412
0.676414
0.676415
0.676416
0.676417
0.676417
0.676418
0.676419
0.67642
0.676422
0.676422
0.676423
0.676424
0.676425
0.676426
0.676426
0.676427
0.676429
0.67643
0.676431
0.676431
0.676432
0.676433
0.676435
0.676436
0.676436
0.676437
0.676438
0.676439
0.676441
0.676441
0.676442
0.676443
0.676444
0.676446
0.676446
0.676447
0.676448
0.676449
0.676451
0.676451
0.676452
0.676453
0.676454
0.676456
0.676456
0.676457
0.676458
0.67646
0.676461
0.676461
0.676462
0.676464
0.676465
0.676466
0.676466
0.676468
0.676469
0.67647
0.676472
0.676472
0.676473
0.676474
0.676476
0.676477
0.676477
0.676478
0.67648
0.676481
0.676483
0.676483
0.676484
0.676485
0.676487
0.676488
0.676488
0.67649
0.676491
0.676492
0.676494
0.676494
0.676495
0.676497
0.676498
0.6765
0.6765
0.676501
0.676503
0.676504
0.676505
0.676505
0.676507
0.676508
0.67651
0.676511
0.676511
0.676513
0.676514
0.676516
0.676517
0.676517
0.676519
0.67652
0.676522
0.676524
0.676524
0.676525
0.676527
0.676528
0.67653
0.67653
0.676531
0.676533
0.676534
0.676536
0.676536
0.676538
0.676539
0.676541
0.676542
0.676542
0.676544
0.676545
0.676547
0.676549
0.676549
0.67655
0.676552
0.676554
0.676555
0.676555
0.676557
0.676558
0.67656
0.676562
0.676562
0.676563
0.676565
0.676567
0.676568
0.676568
0.67657
0.676572
0.676573
0.676575
0.676575
0.676577
0.676578
0.67658
0.676582
0.676582
0.676584
0.676585
0.676587
0.676589
0.676589
0.676591
0.676592
0.676594
0.676596
0.676596
0.676598
0.676599
0.676601
0.676603
0.676603
0.676605
0.676606
0.676608
0.67661
0.67661
0.676612
0.676614
0.676615
0.676617
0.676617
0.676619
0.676621
0.676623
0.676624
0.676624
0.676626
0.676628
0.67663
0.676632
0.676632
0.676634
0.676635
0.676637
0.676639
0.676639
0.676641
0.676643
0.676645
0.676647
0.676647
0.676649
0.676651
0.676652
0.676654
0.676654
0.676656
0.676658
0.67666
0.676662
0.676662
0.676664
0.676666
0.676668
0.67667
0.67667
0.676672
0.676674
0.676676
0.676678
0.676678
0.67668
0.676682
0.676684
0.676686
0.676686
0.676688
0.67669
0.676692
0.676694
0.676694
0.676696
0.676698
0.6767
0.676702
0.676702
0.676704
0.676706
0.676708
0.67671
0.67671
0.676712
0.676714
0.676716
0.676718
0.676718
0.67672
0.676722
0.676724
0.676726
0.676726
0.676729
0.676731
0.676733
0.676735
0.676735
0.676737
0.676739
0.676741
0.676743
0.676743
0.676745
0.676748
0.67675
0.676752
0.676752
0.676754
0.676756
0.676758
0.676761
0.676761
0.676763
0.676765
0.676767
0.676769
0.676769
0.676771
0.676774
0.676776
0.676778
0.676778
0.67678
0.676782
0.676785
0.676787
0.676787
0.676789
0.676791
0.676794
0.676796
0.676796
0.676798
0.6768
0.676803
0.676805
0.676805
0.676807
0.67681
0.676812
0.676814
0.676814
0.676816
0.676819
0.676821
0.676823
0.676823
0.676826
0.676828
0.67683
0.676833
0.676833
0.676835
0.676837
0.67684
0.676842
0.676842
0.676844
0.676847
0.676849
0.676851
0.676851
0.676854
0.676856
0.676859
0.676861
0.676861
0.676863
0.676866
0.676868
0.676871
0.676871
0.676873
0.676875
0.676878
0.67688
0.67688
0.676883
0.676885
0.676888
0.67689
0.67689
0.676892
0.676895
0.676897
0.6769
0.6769
0.676902
0.676905
0.676907
0.67691
0.67691
0.676912
0.676915
0.676917
0.67692
0.67692
0.676922
0.676925
0.676927
0.67693
0.67693
0.676932
0.676935
0.676938
0.67694
0.67694
0.676943
0.676945
0.676948
0.67695
0.67695
0.676953
0.676956
0.676958
0.676961
0.676961
0.676963
0.676966
0.676968
0.676971
0.676971
0.676974
0.676976
0.676979
0.676982
0.676982
0.676984
0.676987
0.67699
0.676992
0.676992
0.676995
0.676997
0.677
0.677003
0.677003
0.677006
0.677008
0.677011
0.677014
0.677014
0.677016
0.677019
0.677022
0.677024
0.677024
0.677027
0.67703
0.677033
0.677035
0.677035
0.677038
0.677041
0.677044
0.677046
0.677046
0.677049
0.677052
0.677055
0.677057
0.677057
0.67706
0.677063
0.677066
0.677069
0.677069
0.677071
0.677074
0.677077
0.67708
0.67708
0.677083
0.677085
0.677088
0.677091
0.677091
0.677094
0.677097
0.6771
0.677102
0.677102
0.677105
0.677108
0.677111
0.677114
0.677114
0.677117
0.67712
0.677123
0.677125
0.677125
0.677128
0.677131
0.677134
0.677137
0.677137
0.67714
0.677143
0.677146
0.677149
0.677149
0.677152
0.677155
0.677158
0.677161
0.677161
0.677164
0.677166
0.677169
0.677172
0.677172
0.677175
0.677178
0.677181
0.677184
0.677184
0.677187
0.67719
0.677193
0.677196
0.677196
0.677199
0.677202
0.677206
0.677209
0.677209
0.677212
0.677215
0.677218
0.677221
0.677221
0.677224
0.677227
0.67723
0.677233
0.677233
0.677236
0.677239
0.677242
0.677245
0.677245
0.677248
0.677252
0.677255
0.677258
0.677258
0.677261
0.677264
0.677267
0.67727
0.67727
0.677273
0.677277
0.67728
0.677283
0.677283
0.677286
0.677289
0.677292
0.677296
0.677296
0.677299
0.677302
0.677305
0.677308
0.677308
0.677312
0.677315
0.677318
0.677321
0.677321
0.677324
0.677328
0.677331
0.677334
0.677334
0.677337
0.677341
0.677344
0.677347
0.677347
0.67735
0.677354
0.677357
0.67736
0.67736
0.677364
0.677367
0.67737
0.677373
0.677373
0.677377
0.67738
0.677383
0.677387
0.677387
0.67739
0.677393
0.677397
0.6774
0.6774
0.677403
0.677407
0.67741
0.677413
0.677413
0.677417
0.67742
0.677424
0.677427
0.677427
0.67743
0.677434
0.677437
0.677441
0.677441
0.677444
0.677447
0.677451
0.677454
0.677454
0.677458
0.677461
0.677464
0.677468
0.677468
0.677471
0.677475
0.677478
0.677482
0.677482
0.677485
0.677489
0.677492
0.677496
0.677496
0.677499
0.677503
0.677506
0.67751
0.67751
0.677513
0.677517
0.67752
0.677524
0.677524
0.677527
0.677531
0.677534
0.677538
0.677538
0.677541
0.677545
0.677549
0.677552
0.677552
0.677556
0.677559
0.677563
0.677566
0.677566
0.67757
0.677574
0.677577
0.677581
0.677581
0.677584
0.677588
0.677592
0.677595
0.677595
0.677599
0.677603
0.677606
0.67761
0.67761
0.677614
0.677617
0.677621
0.677624
0.677624
0.677628
0.677632
0.677636
0.677639
0.677639
0.677643
0.677647
0.67765
0.677654
0.677654
0.677658
0.677661
0.677665
0.677669
0.677669
0.677673
0.677676
0.67768
0.677684
0.677684
0.677688
0.677691
0.677695
0.677699
0.677699
0.677703
0.677706
0.67771
0.677714
0.677714
0.677718
0.677722
0.677725
0.677729
0.677729
0.677733
0.677737
0.677741
0.677745
0.677745
0.677748
0.677752
0.677756
0.67776
0.67776
0.677764
0.677768
0.677772
0.677775
0.677775
0.677779
0.677783
0.677787
0.677791
0.677791
0.677795
0.677799
0.677803
0.677807
0.677807
0.67781
0.677814
0.677818
0.677822
0.677822
0.677826
0.67783
0.677834
0.677838
0.677838
0.677842
0.677846
0.67785
0.677854
0.677854
0.677858
0.677862
0.677866
0.67787
0.67787
0.677874
0.677878
0.677882
0.677886
0.677886
0.67789
0.677894
0.677898
0.677902
0.677902
0.677906
0.67791
0.677914
0.677918
0.677918
0.677922
0.677926
0.67793
0.677935
0.677935
0.677939
0.677943
0.677947
0.677951
0.677951
0.677955
0.677959
0.677963
0.677967
0.677967
0.677971
0.677976
0.67798
0.677984
0.677984
0.677988
0.677992
0.677996
0.678
0.678
0.678005
0.678009
0.678013
0.678017
0.678017
0.678021
0.678026
0.67803
0.678034
0.678034
0.678038
0.678042
0.678047
0.678051
0.678051
0.678055
0.678059
0.678063
0.678068
0.678068
0.678072
0.678076
0.678081
0.678085
0.678085
0.678089
0.678093
0.678098
0.678102
0.678102
0.678106
0.67811
0.678115
0.678119
0.678119
0.678123
0.678128
0.678132
0.678136
0.678136
0.678141
0.678145
0.678149
0.678154
0.678154
0.678158
0.678162
0.678167
0.678171
0.678171
0.678176
0.67818
0.678184
0.678189
0.678189
0.678193
0.678197
0.678202
0.678206
0.678206
0.678211
0.678215
0.67822
0.678224
0.678224
0.678228
0.678233
0.678237
0.678242
0.678242
0.678246
0.678251
0.678255
0.67826
0.67826
0.678264
0.678269
0.678273
0.678278
0.678278
0.678282
0.678287
0.678291
0.678296
0.678296
0.6783
0.678305
0.678309
0.678314
0.678314
0.678318
0.678323
0.678327
0.678332
0.678332
0.678336
0.678341
0.678346
0.67835
0.67835
0.678355
0.678359
0.678364
0.678368
0.678368
0.678373
0.678378
0.678382
0.678387
0.678387
0.678392
0.678396
0.678401
0.678405
0.678405
0.67841
0.678415
0.678419
0.678424
0.678424
0.678429
0.678433
0.678438
0.678443
0.678443
0.678447
0.678452
0.678457
0.678461
0.678461
0.678466
0.678471
0.678476
0.67848
0.67848
0.678485
0.67849
0.678495
0.678499
0.678499
0.678504
0.678509
0.678514
0.678518
0.678518
0.678523
0.678528
0.678533
0.678537
0.678537
0.678542
0.678547
0.678552
0.678557
0.678557
0.678561
0.678566
0.678571
0.678576
0.678576
0.678581
0.678585
0.67859
0.678595
0.678595
0.6786
0.678605
0.67861
0.678615
0.678615
0.678619
0.678624
0.678629
0.678634
0.678634
0.678639
0.678644
0.678649
0.678654
0.678654
0.678659
0.678664
0.678669
0.678673
0.678673
0.678678
0.678683
0.678688
0.678693
0.678693
0.678698
0.678703
0.678708
0.678713
0.678713
0.678718
0.678723
0.678728
0.678733
0.678733
0.678738
0.678743
0.678748
0.678753
0.678753
0.678758
0.678763
0.678768
0.678773
0.678773
0.678778
0.678783
0.678788
0.678793
0.678793
0.678798
0.678803
0.678809
0.678814
0.678814
0.678819
0.678824
0.678829
0.678834
0.678834
0.678839
0.678844
0.678849
0.678854
0.678854
0.67886
0.678865
0.67887
0.678875
0.678875
0.67888
0.678885
0.67889
0.678896
0.678896
0.678901
0.678906
0.678911
0.678916
0.678916
0.678921
0.678927
0.678932
0.678937
0.678937
0.678942
0.678947
0.678953
0.678958
0.678958
0.678963
0.678968
0.678974
0.678979
0.678979
0.678984
0.678989
0.678995
0.679
0.679
0.679005
0.67901
0.679016
0.679021
0.679021
0.679026
0.679032
0.679037
0.679042
0.679042
0.679048
0.679053
0.679058
0.679063
0.679063
0.679069
0.679074
0.67908
0.679085
0.679085
0.67909
0.679096
0.679101
0.679106
0.679106
0.679112
0.679117
0.679122
0.679128
0.679128
0.679133
0.679139
0.679144
0.679149
0.679149
0.679155
0.67916
0.679166
0.679171
0.679171
0.679177
0.679182
0.679188
0.679193
0.679193
0.679198
0.679204
0.679209
0.679215
0.679215
0.67922
0.679226
0.679231
0.679237
0.679237
0.679242
0.679248
0.679253
0.679259
0.679259
0.679264
0.67927
0.679275
0.679281
0.679281
0.679287
0.679292
0.679298
0.679303
0.679303
0.679309
0.679314
0.67932
0.679325
0.679325
0.679331
0.679337
0.679342
0.679348
0.679348
0.679353
0.679359
0.679365
0.67937
0.67937
0.679376
0.679382
0.679387
0.679393
0.679393
0.679399
0.679404
0.67941
0.679416
0.679416
0.679421
0.679427
0.679433
0.679438
0.679438
0.679444
0.67945
0.679455
0.679461
0.679461
0.679467
0.679473
0.679478
0.679484
0.679484
0.67949
0.679495
0.679501
0.679507
0.679507
0.679513
0.679518
0.679524
0.67953
0.67953
0.679536
0.679542
0.679547
0.679553
0.679553
0.679559
0.679565
0.679571
0.679576
0.679576
0.679582
0.679588
0.679594
0.6796
0.6796
0.679606
0.679611
0.679617
0.679623
0.679623
0.679629
0.679635
0.679641
0.679647
0.679647
0.679653
0.679658
0.679664
0.67967
0.67967
0.679676
0.679682
0.679688
0.679694
0.679694
0.6797
0.679706
0.679712
0.679718
0.679718
0.679724
0.67973
0.679736
0.679741
0.679741
0.679747
0.679753
0.679759
0.679765
0.679765
0.679771
0.679777
0.679783
0.679789
0.679789
0.679795
0.679801
0.679807
0.679814
0.679814
0.67982
0.679826
0.679832
0.679838
0.679838
0.679844
0.67985
0.679856
0.679862
0.679862
0.679868
0.679874
0.67988
0.679886
0.679886
0.679892
0.679898
0.679905
0.679911
0.679911
0.679917
0.679923
0.679929
0.679935
0.679935
0.679941
0.679948
0.679954
0.67996
0.67996
0.679966
0.679972
0.679978
0.679985
0.679985
0.679991
0.679997
0.680003
0.680009
0.680009
0.680016
0.680022
0.680028
0.680034
0.680034
0.68004
0.680047
0.680053
0.680059
0.680059
0.680065
0.680072
0.680078
0.680084
0.680084
0.68009
0.680097
0.680103
0.680109
0.680109
0.680116
0.680122
0.680128
0.680135
0.680135
0.680141
0.680147
0.680154
0.68016
0.68016
0.680166
0.680173
0.680179
0.680185
0.680185
0.680192
0.680198
0.680204
0.680211
0.680211
0.680217
0.680223
0.68023
0.680236
0.680236
0.680243
0.680249
0.680255
0.680262
0.680262
0.680268
0.680275
0.680281
0.680288
0.680288
0.680294
0.680301
0.680307
0.680313
0.680313
0.68032
0.680326
0.680333
0.680339
0.680339
0.680346
0.680352
0.680359
0.680365
0.680365
0.680372
0.680378
0.680385
0.680391
0.680391
0.680398
0.680404
0.680411
0.680418
0.680418
0.680424
0.680431
0.680437
0.680444
0.680444
0.68045
0.680457
0.680464
0.68047
0.68047
0.680477
0.680483
0.68049
0.680497
0.680497
0.680503
0.68051
0.680516
0.680523
0.680523
0.68053
0.680536
0.680543
0.68055
0.68055
0.680556
0.680563
0.68057
0.680576
0.680576
0.680583
0.68059
0.680596
0.680603
0.680603
0.68061
0.680617
0.680623
0.68063
0.68063
0.680637
0.680643
0.68065
0.680657
0.680657
0.680664
0.68067
0.680677
0.680684
0.680684
0.680691
0.680698
0.680704
0.680711
0.680711
0.680718
0.680725
0.680732
0.680738
0.680738
0.680745
0.680752
0.680759
0.680766
0.680766
0.680772
0.680779
0.680786
0.680793
0.680793
0.6808
0.680807
0.680814
0.68082
0.68082
0.680827
0.680834
0.680841
0.680848
0.680848
0.680855
0.680862
0.680869
0.680876
0.680876
0.680883
0.68089
0.680897
0.680903
0.680903
0.68091
0.680917
0.680924
0.680931
0.680931
0.680938
0.680945
0.680952
0.680959
0.680959
0.680966
0.680973
0.68098
0.680987
0.680987
0.680994
0.681001
0.681008
0.681015
0.681015
0.681022
0.681029
0.681036
0.681043
0.681043
0.68105
0.681058
0.681065
0.681072
0.681072
0.681079
0.681086
0.681093
0.6811
0.6811
0.681107
0.681114
0.681121
0.681129
0.681129
0.681136
0.681143
0.68115
0.681157
0.681157
0.681164
0.681171
0.681178
0.681186
0.681186
0.681193
0.6812
0.681207
0.681214
0.681214
0.681222
0.681229
0.681236
0.681243
0.681243
0.68125
0.681258
0.681265
0.681272
0.681272
0.681279
0.681286
0.681294
0.681301
0.681301
0.681308
0.681316
0.681323
0.68133
0.68133
0.681337
0.681345
0.681352
0.681359
0.681359
0.681366
0.681374
0.681381
0.681388
0.681388
0.681396
0.681403
0.68141
0.681418
0.681418
0.681425
0.681432
0.68144
0.681447
0.681447
0.681455
0.681462
0.681469
0.681477
0.681477
0.681484
0.681491
0.681499
0.681506
0.681506
0.681514
0.681521
0.681528
0.681536
0.681536
0.681543
0.681551
0.681558
0.681566
0.681566
0.681573
0.681581
0.681588
0.681596
0.681596
0.681603
0.68161
0.681618
0.681625
0.681625
0.681633
0.68164
0.681648
0.681656
0.681656
0.681663
0.681671
0.681678
0.681686
0.681686
0.681693
0.681701
0.681708
0.681716
0.681716
0.681723
0.681731
0.681739
0.681746
0.681746
0.681754
0.681761
0.681769
0.681777
0.681777
0.681784
0.681792
0.681799
0.681807
0.681807
0.681815
0.681822
0.68183
0.681838
0.681838
0.681845
0.681853
0.681861
0.681868
0.681868
0.681876
0.681884
0.681891
0.681899
0.681899
0.681907
0.681914
0.681922
0.68193
0.68193
0.681938
0.681945
0.681953
0.681961
0.681961
0.681968
0.681976
0.681984
0.681992
0.681992
0.682
0.682007
0.682015
0.682023
0.682023
0.682031
0.682038
0.682046
0.682054
0.682054
0.682062
0.68207
0.682078
0.682085
0.682085
0.682093
0.682101
0.682109
0.682117
0.682117
0.682125
0.682132
0.68214
0.682148
0.682148
0.682156
0.682164
0.682172
0.68218
0.68218
0.682188
0.682196
0.682203
0.682211
0.682211
0.682219
0.682227
0.682235
0.682243
0.682243
0.682251
0.682259
0.682267
0.682275
0.682275
0.682283
0.682291
0.682299
0.682307
0.682307
0.682315
0.682323
0.682331
0.682339
0.682339
0.682347
0.682355
0.682363
0.682371
0.682371
0.682379
0.682387
0.682395
0.682403
0.682403
0.682411
0.682419
0.682427
0.682435
0.682435
0.682444
0.682452
0.68246
0.682468
0.682468
0.682476
0.682484
0.682492
0.6825
0.6825
0.682508
0.682516
0.682525
0.682533
0.682533
0.682541
0.682549
0.682557
0.682565
0.682565
0.682574
0.682582
0.68259
0.682598
0.682598
0.682606
0.682615
0.682623
0.682631
0.682631
0.682639
0.682647
0.682656
0.682664
0.682664
0.682672
0.68268
0.682689
0.682697
0.682697
0.682705
0.682713
0.682722
0.68273
0.68273
0.682738
0.682747
0.682755
0.682763
0.682763
0.682771
0.68278
0.682788
0.682796
0.682796
0.682805
0.682813
0.682821
0.68283
0.68283
0.682838
0.682847
0.682855
0.682863
0.682863
0.682872
0.68288
0.682888
0.682897
0.682897
0.682905
0.682914
0.682922
0.68293
0.68293
0.682939
0.682947
0.682956
0.682964
0.682964
0.682973
0.682981
0.68299
0.682998
0.682998
0.683006
0.683015
0.683023
0.683032
0.683032
0.68304
0.683049
0.683057
0.683066
0.683066
0.683074
0.683083
0.683091
0.6831
0.6831
0.683109
0.683117
0.683126
0.683134
0.683134
0.683143
0.683151
0.68316
0.683168
0.683168
0.683177
0.683186
0.683194
0.683203
0.683203
0.683211
0.68322
0.683229
0.683237
0.683237
0.683246
0.683255
0.683263
0.683272
0.683272
0.683281
0.683289
0.683298
0.683306
0.683306
0.683315
0.683324
0.683333
0.683341
0.683341
0.68335
0.683359
0.683367
0.683376
0.683376
0.683385
0.683394
0.683402
0.683411
0.683411
0.68342
0.683428
0.683437
0.683446
0.683446
0.683455
0.683464
0.683472
0.683481
0.683481
0.68349
0.683499
0.683507
0.683516
0.683516
0.683525
0.683534
0.683543
0.683552
0.683552
0.68356
0.683569
0.683578
0.683587
0.683587
0.683596
0.683605
0.683614
0.683622
0.683622
0.683631
0.68364
0.683649
0.683658
0.683658
0.683667
0.683676
0.683685
0.683694
0.683694
0.683703
0.683712
0.68372
0.683729
0.683729
0.683738
0.683747
0.683756
0.683765
0.683765
0.683774
0.683783
0.683792
0.683801
0.683801
0.68381
0.683819
0.683828
0.683837
0.683837
0.683846
0.683855
0.683864
0.683873
0.683873
0.683882
0.683891
0.683901
0.68391
0.68391
0.683919
0.683928
0.683937
0.683946
0.683946
0.683955
0.683964
0.683973
0.683982
0.683982
0.683991
0.684001
0.68401
0.684019
0.684019
0.684028
0.684037
0.684046
0.684055
0.684055
0.684065
0.684074
0.684083
0.684092
0.684092
0.684101
0.68411
0.68412
0.684129
0.684129
0.684138
0.684147
0.684156
0.684166
0.684166
0.684175
0.684184
0.684193
0.684203
0.684203
0.684212
0.684221
0.68423
0.68424
0.68424
0.684249
0.684258
0.684268
0.684277
0.684277
0.684286
0.684295
0.684305
0.684314
0.684314
0.684323
0.684333
0.684342
0.684351
0.684351
0.684361
0.68437
0.68438
0.684389
0.684389
0.684398
0.684408
0.684417
0.684426
0.684426
0.684436
0.684445
0.684455
0.684464
0.684464
0.684473
0.684483
0.684492
0.684502
0.684502
0.684511
0.684521
0.68453
0.68454
0.68454
0.684549
0.684558
0.684568
0.684577
0.684577
0.684587
0.684596
0.684606
0.684615
0.684615
0.684625
0.684635
0.684644
0.684654
0.684654
0.684663
0.684673
0.684682
0.684692
0.684692
0.684701
0.684711
0.68472
0.68473
0.68473
0.68474
0.684749
0.684759
0.684768
0.684768
0.684778
0.684788
0.684797
0.684807
0.684807
0.684816
0.684826
0.684836
0.684845
0.684845
0.684855
0.684865
0.684874
0.684884
0.684884
0.684894
0.684903
0.684913
0.684923
0.684923
0.684932
0.684942
0.684952
0.684962
0.684962
0.684971
0.684981
0.684991
0.685001
0.685001
0.68501
0.68502
0.68503
0.68504
0.68504
0.685049
0.685059
0.685069
0.685079
0.685079
0.685089
0.685098
0.685108
0.685118
0.685118
0.685128
0.685138
0.685147
0.685157
0.685157
0.685167
0.685177
0.685187
0.685197
0.685197
0.685207
0.685216
0.685226
0.685236
0.685236
0.685246
0.685256
0.685266
0.685276
0.685276
0.685286
0.685296
0.685306
0.685316
0.685316
0.685325
0.685335
0.685345
0.685355
0.685355
0.685365
0.685375
0.685385
0.685395
0.685395
0.685405
0.685415
0.685425
0.685435
0.685435
0.685445
0.685455
0.685465
0.685475
0.685475
0.685485
0.685495
0.685505
0.685515
0.685515
0.685526
0.685536
0.685546
0.685556
0.685556
0.685566
0.685576
0.685586
0.685596
0.685596
0.685606
0.685616
0.685626
0.685637
0.685637
0.685647
0.685657
0.685667
0.685677
0.685677
0.685687
0.685697
0.685708
0.685718
0.685718
0.685728
0.685738
0.685748
0.685759
0.685759
0.685769
0.685779
0.685789
0.685799
0.685799
0.68581
0.68582
0.68583
0.68584
0.68584
0.685851
0.685861
0.685871
0.685881
0.685881
0.685892
0.685902
0.685912
0.685923
0.685923
0.685933
0.685943
0.685953
0.685964
0.685964
0.685974
0.685984
0.685995
0.686005
0.686005
0.686015
0.686026
0.686036
0.686047
0.686047
0.686057
0.686067
0.686078
0.686088
0.686088
0.686098
0.686109
0.686119
0.68613
0.68613
0.68614
0.686151
0.686161
0.686171
0.686171
0.686182
0.686192
0.686203
0.686213
0.686213
0.686224
0.686234
0.686245
0.686255
0.686255
0.686266
0.686276
0.686287
0.686297
0.686297
0.686308
0.686318
0.686329
0.686339
0.686339
0.68635
0.68636
0.686371
0.686381
0.686381
0.686392
0.686403
0.686413
0.686424
0.686424
0.686434
0.686445
0.686456
0.686466
0.686466
0.686477
0.686487
0.686498
0.686509
0.686509
0.686519
0.68653
0.686541
0.686551
0.686551
0.686562
0.686573
0.686583
0.686594
0.686594
0.686605
0.686615
0.686626
0.686637
0.686637
0.686647
0.686658
0.686669
0.68668
0.68668
0.68669
0.686701
0.686712
0.686723
0.686723
0.686733
0.686744
0.686755
0.686766
0.686766
0.686776
0.686787
0.686798
0.686809
0.686809
0.68682
0.686831
0.686841
0.686852
0.686852
0.686863
0.686874
0.686885
0.686896
0.686896
0.686906
0.686917
0.686928
0.686939
0.686939
0.68695
0.686961
0.686972
0.686983
0.686983
0.686993
0.687004
0.687015
0.687026
0.687026
0.687037
0.687048
0.687059
0.68707
0.68707
0.687081
0.687092
0.687103
0.687114
0.687114
0.687125
0.687136
0.687147
0.687158
0.687158
0.687169
0.68718
0.687191
0.687202
0.687202
0.687213
0.687224
0.687235
0.687246
0.687246
0.687257
0.687268
0.687279
0.68729
0.68729
0.687301
0.687313
0.687324
0.687335
0.687335
0.687346
0.687357
0.687368
0.687379
0.687379
0.68739
0.687401
0.687413
0.687424
0.687424
0.687435
0.687446
0.687457
0.687468
0.687468
0.68748
0.687491
0.687502
0.687513
0.687513
0.687524
0.687536
0.687547
0.687558
0.687558
0.687569
0.68758
0.687592
0.687603
0.687603
0.687614
0.687625
0.687637
0.687648
0.687648
0.687659
0.687671
0.687682
0.687693
0.687693
0.687704
0.687716
0.687727
0.687738
0.687738
0.68775
0.687761
0.687772
0.687784
0.687784
0.687795
0.687806
0.687818
0.687829
0.687829
0.687841
0.687852
0.687863
0.687875
0.687875
0.687886
0.687898
0.687909
0.68792
0.68792
0.687932
0.687943
0.687955
0.687966
0.687966
0.687978
0.687989
0.688001
0.688012
0.688012
0.688023
0.688035
0.688046
0.688058
0.688058
0.688069
0.688081
0.688093
0.688104
0.688104
0.688116
0.688127
0.688139
0.68815
0.68815
0.688162
0.688173
0.688185
0.688196
0.688196
0.688208
0.68822
0.688231
0.688243
0.688243
0.688254
0.688266
0.688278
0.688289
0.688289
0.688301
0.688313
0.688324
0.688336
0.688336
0.688347
0.688359
0.688371
0.688382
0.688382
0.688394
0.688406
0.688417
0.688429
0.688429
0.688441
0.688453
0.688464
0.688476
0.688476
0.688488
0.6885
0.688511
0.688523
0.688523
0.688535
0.688547
0.688558
0.68857
0.68857
0.688582
0.688594
0.688605
0.688617
0.688617
0.688629
0.688641
0.688653
0.688664
0.688664
0.688676
0.688688
0.6887
0.688712
0.688712
0.688724
0.688736
0.688747
0.688759
0.688759
0.688771
0.688783
0.688795
0.688807
0.688807
0.688819
0.688831
0.688843
0.688855
0.688855
0.688866
0.688878
0.68889
0.688902
0.688902
0.688914
0.688926
0.688938
0.68895
0.68895
0.688962
0.688974
0.688986
0.688998
0.688998
0.68901
0.689022
0.689034
0.689046
0.689046
0.689058
0.68907
0.689082
0.689094
0.689094
0.689106
0.689119
0.689131
0.689143
0.689143
0.689155
0.689167
0.689179
0.689191
0.689191
0.689203
0.689215
0.689227
0.689239
0.689239
0.689252
0.689264
0.689276
0.689288
0.689288
0.6893
0.689312
0.689325
0.689337
0.689337
0.689349
0.689361
0.689373
0.689386
0.689386
0.689398
0.68941
0.689422
0.689434
0.689434
0.689447
0.689459
0.689471
0.689483
0.689483
0.689496
0.689508
0.68952
0.689533
0.689533
0.689545
0.689557
0.689569
0.689582
0.689582
0.689594
0.689606
0.689619
0.689631
0.689631
0.689643
0.689656
0.689668
0.68968
0.68968
0.689693
0.689705
0.689717
0.68973
0.68973
0.689742
0.689755
0.689767
0.68978
0.68978
0.689792
0.689804
0.689817
0.689829
0.689829
0.689842
0.689854
0.689867
0.689879
0.689879
0.689891
0.689904
0.689916
0.689929
0.689929
0.689941
0.689954
0.689966
0.689979
0.689979
0.689991
0.690004
0.690017
0.690029
0.690029
0.690042
0.690054
0.690067
0.690079
0.690079
0.690092
0.690104
0.690117
0.69013
0.69013
0.690142
0.690155
0.690167
0.69018
0.69018
0.690193
0.690205
0.690218
0.690231
0.690231
0.690243
0.690256
0.690269
0.690281
0.690281
0.690294
0.690307
0.690319
0.690332
0.690332
0.690345
0.690357
0.69037
0.690383
0.690383
0.690396
0.690408
0.690421
0.690434
0.690434
0.690446
0.690459
0.690472
0.690485
0.690485
0.690498
0.69051
0.690523
0.690536
0.690536
0.690549
0.690562
0.690574
0.690587
0.690587
0.6906
0.690613
0.690626
0.690639
0.690639
0.690651
0.690664
0.690677
0.69069
0.69069
0.690703
0.690716
0.690729
0.690742
0.690742
0.690755
0.690767
0.69078
0.690793
0.690793
0.690806
0.690819
0.690832
0.690845
0.690845
0.690858
0.690871
0.690884
0.690897
0.690897
0.69091
0.690923
0.690936
0.690949
0.690949
0.690962
0.690975
0.690988
0.691001
0.691001
0.691014
0.691027
0.69104
0.691053
0.691053
0.691066
0.691079
0.691092
0.691106
0.691106
0.691119
0.691132
0.691145
0.691158
0.691158
0.691171
0.691184
0.691197
0.69121
0.69121
0.691224
0.691237
0.69125
0.691263
0.691263
0.691276
0.691289
0.691303
0.691316
0.691316
0.691329
0.691342
0.691355
0.691369
0.691369
0.691382
0.691395
0.691408
0.691422
0.691422
0.691435
0.691448
0.691461
0.691475
0.691475
0.691488
0.691501
0.691515
0.691528
0.691528
0.691541
0.691554
0.691568
0.691581
0.691581
0.691594
0.691608
0.691621
0.691634
0.691634
0.691648
0.691661
0.691675
0.691688
0.691688
0.691701
0.691715
0.691728
0.691741
0.691741
0.691755
0.691768
0.691782
0.691795
0.691795
0.691809
0.691822
0.691835
0.691849
0.691849
0.691862
0.691876
0.691889
0.691903
0.691903
0.691916
0.69193
0.691943
0.691957
0.691957
0.69197
0.691984
0.691997
0.692011
0.692011
0.692024
0.692038
0.692052
0.692065
0.692065
0.692079
0.692092
0.692106
0.692119
0.692119
0.692133
0.692147
0.69216
0.692174
0.692174
0.692187
0.692201
0.692215
0.692228
0.692228
0.692242
0.692256
0.692269
0.692283
0.692283
0.692297
0.69231
0.692324
0.692338
0.692338
0.692351
0.692365
0.692379
0.692393
0.692393
0.692406
0.69242
0.692434
0.692448
0.692448
0.692461
0.692475
0.692489
0.692503
0.692503
0.692516
0.69253
0.692544
0.692558
0.692558
0.692572
0.692585
0.692599
0.692613
0.692613
0.692627
0.692641
0.692655
0.692668
0.692668
0.692682
0.692696
0.69271
0.692724
0.692724
0.692738
0.692752
0.692766
0.69278
0.69278
0.692794
0.692807
0.692821
0.692835
0.692835
0.692849
0.692863
0.692877
0.692891
0.692891
0.692905
0.692919
0.692933
0.692947
0.692947
0.692961
0.692975
0.692989
0.693003
0.693003
0.693017
0.693031
0.693045
0.693059
0.693059
0.693073
0.693087
0.693101
0.693115
0.693115
0.69313
0.693144
0.693158
0.693172
0.693172
0.693186
0.6932
0.693214
0.693228
0.693228
0.693242
0.693257
0.693271
0.693285
0.693285
0.693299
0.693313
0.693327
0.693342
0.693342
0.693356
0.69337
0.693384
0.693398
0.693398
0.693413
0.693427
0.693441
0.693455
0.693455
0.69347
0.693484
0.693498
0.693512
0.693512
0.693527
0.693541
0.693555
0.693569
0.693569
0.693584
0.693598
0.693612
0.693627
0.693627
0.693641
0.693655
0.69367
0.693684
0.693684
0.693698
0.693713
0.693727
0.693741
0.693741
0.693756
0.69377
0.693785
0.693799
0.693799
0.693813
0.693828
0.693842
0.693857
0.693857
0.693871
0.693886
0.6939
0.693914
0.693914
0.693929
0.693943
0.693958
0.693972
0.693972
0.693987
0.694001
0.694016
0.69403
0.69403
0.694045
0.694059
0.694074
0.694088
0.694088
0.694103
0.694118
0.694132
0.694147
0.694147
0.694161
0.694176
0.69419
0.694205
0.694205
0.69422
0.694234
0.694249
0.694263
0.694263
0.694278
0.694293
0.694307
0.694322
0.694322
0.694337
0.694351
0.694366
0.694381
0.694381
0.694395
0.69441
0.694425
0.694439
0.694439
0.694454
0.694469
0.694484
0.694498
0.694498
0.694513
0.694528
0.694543
0.694557
0.694557
0.694572
0.694587
0.694602
0.694616
0.694616
0.694631
0.694646
0.694661
0.694676
0.694676
0.69469
0.694705
0.69472
0.694735
0.694735
0.69475
0.694765
0.694779
0.694794
0.694794
0.694809
0.694824
0.694839
0.694854
0.694854
0.694869
0.694884
0.694899
0.694914
0.694914
0.694928
0.694943
0.694958
0.694973
0.694973
0.694988
0.695003
0.695018
0.695033
0.695033
0.695048
0.695063
0.695078
0.695093
0.695093
0.695108
0.695123
0.695138
0.695153
0.695153
0.695168
0.695183
0.695198
0.695213
0.695213
0.695229
0.695244
0.695259
0.695274
0.695274
0.695289
0.695304