<?xml version="1.0"?>
<VTKFile type="UnstructuredGrid" version="0.1" byte_order="LittleEndian">
<UnstructuredGrid>
<Piece NumberOfPoints="5000" NumberOfCells="4000">
<PointData Scalars="Reaction 0">
<DataArray type="Float32" Name="Reaction 0" format="ascii">
0.673499
0.673499
0.673499
0.673499
0.673499
0.673499
0.673499
0.673499
0.673499
0.673499
0.673499
0.673499
0.673499
0.673499
0.673499
0.673499
0.6735
0.6735
0.6735
0.6735
0.6735
0.6735
0.6735
0.6735
0.6735
0.6735
0.6735
0.6735
0.6735
0.673501
0.673501
0.673501
0.673501
0.673501
0.673501
0.673501
0.673501
0.673501
0.673501
0.673502
0.673502
0.673502
0.673502
0.673502
0.673502
0.673502
0.673502
0.673503
0.673503
0.673503
0.673503
0.673503
0.673503
0.673504
0.673504
0.673504
0.673504
0.673504
0.673505
0.673505
0.673505
0.673505
0.673505
0.673505
0.673506
0.673506
0.673506
0.673506
0.673506
0.673507
0.673507
0.673507
0.673507
0.673508
0.673508
0.673508
0.673508
0.673508
0.673509
0.673509
0.673509
0.673509
0.67351
0.67351
0.67351
0.67351
0.673511
0.673511
0.673511
0.673512
0.673512
0.673512
0.673512
0.673513
0.673513
0.673513
0.673514
0.673514
0.673514
0.673515
0.673515
0.673515
0.673515
0.673516
0.673516
0.673516
0.673517
0.673517
0.673518
0.673518
0.673518
0.673518
0.673519
0.673519
0.67352
0.67352
0.67352
0.673521
0.673521
0.673522
0.673522
0.673522
0.673522
0.673523
0.673523
0.673523
0.673524
0.673524
0.673525
0.673525
0.673525
0.673526
0.673526
0.673527
0.673527
0.673527
0.673528
0.673529
0.673529
0.67353
0.67353
0.67353
0.673531
0.673531
0.673532
0.673532
0.673532
0.673533
0.673534
0.673534
0.673534
0.673535
0.673535
0.673536
0.673536
0.673536
0.673537
0.673538
0.673538
0.673539
0.673539
0.67354
0.67354
0.673541
0.673541
0.673541
0.673542
0.673543
0.673543
0.673544
0.673544
0.673545
0.673545
0.673546
0.673547
0.673547
0.673547
0.673548
0.673549
0.673549
0.673549
0.67355
0.673551
0.673552
0.673552
0.673552
0.673553
0.673554
0.673554
0.673555
0.673555
0.673556
0.673557
0.673557
0.673558
0.673558
0.673559
0.67356
0.67356
0.673561
0.673561
0.673562
0.673563
0.673564
0.673564
0.673564
0.673565
0.673566
0.673567
0.673568
0.673568
0.673568
0.673569
0.67357
0.673571
0.673571
0.673572
0.673573
0.673573
0.673574
0.673574
0.673575
0.673576
0.673577
0.673578
0.673578
0.673579
0.67358
0.67358
0.673581
0.673581
0.673582
0.673583
0.673584
0.673585
0.673585
0.673586
0.673587
0.673588
0.673589
0.673589
0.67359
0.67359
0.673591
0.673592
0.673592
0.673593
0.673594
0.673595
0.673596
0.673596
0.673597
0.673598
0.673599
0.6736
0.6736
0.673601
0.673602
0.673603
0.673604
0.673604
0.673605
0.673606
0.673607
0.673608
0.673608
0.673609
0.67361
0.673611
0.673612
0.673612
0.673613
0.673614
0.673616
0.673617
0.673617
0.673618
0.673619
0.67362
0.673621
0.673621
0.673622
0.673623
0.673624
0.673625
0.673625
0.673626
0.673628
0.673629
0.67363
0.67363
0.673631
0.673632
0.673633
0.673634
0.673634
0.673635
0.673637
0.673638
0.673639
0.673639
0.67364
0.673641
0.673642
0.673644
0.673644
0.673645
0.673646
0.673647
0.673648
0.673648
0.67365
0.673651
0.673652
0.673653
0.673653
0.673655
0.673656
0.673657
0.673658
0.673658
0.673659
0.673661
0.673662
0.673663
0.673663
0.673664
0.673666
0.673667
0.673668
0.673668
0.67367
0.673671
0.673672
0.673673
0.673673
0.673675
0.673676
0.673677
0.673679
0.673679
0.67368
0.673681
0.673683
0.673684
0.673684
0.673685
0.673687
0.673688
0.673689
0.673689
0.673691
0.673692
0.673694
0.673695
0.673695
0.673696
0.673698
0.673699
0.6737
0.6737
0.673702
0.673703
0.673705
0.673706
0.673706
0.673708
0.673709
0.67371
0.673712
0.673712
0.673713
0.673715
0.673716
0.673718
0.673718
0.673719
0.673721
0.673722
0.673724
0.673724
0.673725
0.673726
0.673728
0.673729
0.673729
0.673731
0.673732
0.673734
0.673735
0.673735
0.673737
0.673739
0.67374
0.673742
0.673742
0.673743
0.673745
0.673746
0.673748
0.673748
0.673749
0.673751
0.673752
0.673754
0.673754
0.673756
0.673757
0.673759
0.67376
0.67376
0.673762
0.673764
0.673765
0.673767
0.673767
0.673768
0.67377
0.673772
0.673773
0.673773
0.673775
0.673777
0.673778
0.67378
0.67378
0.673782
0.673783
0.673785
0.673787
0.673787
0.673788
0.67379
0.673792
0.673793
0.673793
0.673795
0.673797
0.673798
0.6738
0.6738
0.673802
0.673803
0.673805
0.673807
0.673807
0.673809
0.67381
0.673812
0.673814
0.673814
0.673816
0.673817
0.673819
0.673821
0.673821
0.673823
0.673824
0.673826
0.673828
0.673828
0.67383
0.673832
0.673833
0.673835
0.673835
0.673837
0.673839
0.673841
0.673843
0.673843
0.673844
0.673846
0.673848
0.67385
0.67385
0.673852
0.673854
0.673855
0.673857
0.673857
0.673859
0.673861
0.673863
0.673865
0.673865
0.673867
0.673869
0.673871
0.673872
0.673872
0.673874
0.673876
0.673878
0.67388
0.67388
0.673882
0.673884
0.673886
0.673888
0.673888
0.67389
0.673892
0.673894
0.673896
0.673896
0.673898
0.6739
0.673902
0.673904
0.673904
0.673906
0.673908
0.67391
0.673912
0.673912
0.673914
0.673916
0.673918
0.67392
0.67392
0.673922
0.673924
0.673926
0.673928
0.673928
0.67393
0.673932
0.673934
0.673936
0.673936
0.673938
0.67394
0.673942
0.673944
0.673944
0.673946
0.673948
0.673951
0.673953
0.673953
0.673955
0.673957
0.673959
0.673961
0.673961
0.673963
0.673965
0.673967
0.67397
0.67397
0.673972
0.673974
0.673976
0.673978
0.673978
0.67398
0.673983
0.673985
0.673987
0.673987
0.673989
0.673991
0.673994
0.673996
0.673996
0.673998
0.674
0.674002
0.674005
0.674005
0.674007
0.674009
0.674011
0.674013
0.674013
0.674016
0.674018
0.67402
0.674022
0.674022
0.674025
0.674027
0.674029
0.674032
0.674032
0.674034
0.674036
0.674038
0.674041
0.674041
0.674043
0.674045
0.674048
0.67405
0.67405
0.674052
0.674055
0.674057
0.674059
0.674059
0.674062
0.674064
0.674066
0.674069
0.674069
0.674071
0.674073
0.674076
0.674078
0.674078
0.674081
0.674083
0.674085
0.674088
0.674088
0.67409
0.674092
0.674095
0.674097
0.674097
0.6741
0.674102
0.674105
0.674107
0.674107
0.674109
0.674112
0.674114
0.674117
0.674117
0.674119
0.674122
0.674124
0.674127
0.674127
0.674129
0.674132
0.674134
0.674137
0.674137
0.674139
0.674142
0.674144
0.674147
0.674147
0.674149
0.674152
0.674154
0.674157
0.674157
0.674159
0.674162
0.674164
0.674167
0.674167
0.67417
0.674172
0.674175
0.674177
0.674177
0.67418
0.674182
0.674185
0.674188
0.674188
0.67419
0.674193
0.674195
0.674198
0.674198
0.674201
0.674203
0.674206
0.674208
0.674208
0.674211
0.674214
0.674216
0.674219
0.674219
0.674222
0.674224
0.674227
0.67423
0.67423
0.674232
0.674235
0.674238
0.67424
0.67424
0.674243
0.674246
0.674249
0.674251
0.674251
0.674254
0.674257
0.674259
0.674262
0.674262
0.674265
0.674268
0.67427
0.674273
0.674273
0.674276
0.674279
0.674281
0.674284
0.674284
0.674287
0.67429
0.674293
0.674295
0.674295
0.674298
0.674301
0.674304
0.674307
0.674307
0.674309
0.674312
0.674315
0.674318
0.674318
0.674321
0.674323
0.674326
0.674329
0.674329
0.674332
0.674335
0.674338
0.674341
0.674341
0.674343
0.674346
0.674349
0.674352
0.674352
0.674355
0.674358
0.674361
0.674364
0.674364
0.674367
0.67437
0.674372
0.674375
0.674375
0.674378
0.674381
0.674384
0.674387
0.674387
0.67439
0.674393
0.674396
0.674399
0.674399
0.674402
0.674405
0.674408
0.674411
0.674411
0.674414
0.674417
0.67442
0.674423
0.674423
0.674426
0.674429
0.674432
0.674435
0.674435
0.674438
0.674441
0.674444
0.674447
0.674447
0.67445
0.674453
0.674456
0.674459
0.674459
0.674463
0.674466
0.674469
0.674472
0.674472
0.674475
0.674478
0.674481
0.674484
0.674484
0.674487
0.67449
0.674494
0.674497
0.674497
0.6745
0.674503
0.674506
0.674509
0.674509
0.674512
0.674516
0.674519
0.674522
0.674522
0.674525
0.674528
0.674531
0.674535
0.674535
0.674538
0.674541
0.674544
0.674547
0.674547
0.674551
0.674554
0.674557
0.67456
0.67456
0.674563
0.674567
0.67457
0.674573
0.674573
0.674576
0.67458
0.674583
0.674586
0.674586
0.67459
0.674593
0.674596
0.674599
0.674599
0.674603
0.674606
0.674609
0.674613
0.674613
0.674616
0.674619
0.674623
0.674626
0.674626
0.674629
0.674633
0.674636
0.674639
0.674639
0.674643
0.674646
0.674649
0.674653
0.674653
0.674656
0.674659
0.674663
0.674666
0.674666
0.67467
0.674673
0.674676
0.67468
0.67468
0.674683
0.674687
0.67469
0.674693
0.674693
0.674697
0.6747
0.674704
0.674707
0.674707
0.674711
0.674714
0.674718
0.674721
0.674721
0.674724
0.674728
0.674731
0.674735
0.674735
0.674738
0.674742
0.674745
0.674749
0.674749
0.674752
0.674756
0.674759
0.674763
0.674763
0.674767
0.67477
0.674774
0.674777
0.674777
0.674781
0.674784
0.674788
0.674791
0.674791
0.674795
0.674799
0.674802
0.674806
0.674806
0.674809
0.674813
0.674816
0.67482
0.67482
0.674824
0.674827
0.674831
0.674835
0.674835
0.674838
0.674842
0.674845
0.674849
0.674849
0.674853
0.674856
0.67486
0.674864
0.674864
0.674867
0.674871
0.674875
0.674878
0.674878
0.674882
0.674886
0.67489
0.674893
0.674893
0.674897
0.674901
0.674904
0.674908
0.674908
0.674912
0.674916
0.674919
0.674923
0.674923
0.674927
0.674931
0.674934
0.674938
0.674938
0.674942
0.674946
0.674949
0.674953
0.674953
0.674957
0.674961
0.674965
0.674968
0.674968
0.674972
0.674976
0.67498
0.674984
0.674984
0.674988
0.674991
0.674995
0.674999
0.674999
0.675003
0.675007
0.675011
0.675014
0.675014
0.675018
0.675022
0.675026
0.67503
0.67503
0.675034
0.675038
0.675042
0.675046
0.675046
0.675049
0.675053
0.675057
0.675061
0.675061
0.675065
0.675069
0.675073
0.675077
0.675077
0.675081
0.675085
0.675089
0.675093
0.675093
0.675097
0.675101
0.675105
0.675109
0.675109
0.675113
0.675117
0.675121
0.675125
0.675125
0.675129
0.675133
0.675137
0.675141
0.675141
0.675145
0.675149
0.675153
0.675157
0.675157
0.675161
0.675165
0.675169
0.675173
0.675173
0.675177
0.675181
0.675186
0.67519
0.67519
0.675194
0.675198
0.675202
0.675206
0.675206
0.67521
0.675214
0.675218
0.675222
0.675222
0.675227
0.675231
0.675235
0.675239
0.675239
0.675243
0.675247
0.675252
0.675256
0.675256
0.67526
0.675264
0.675268
0.675272
0.675272
0.675277
0.675281
0.675285
0.675289
0.675289
0.675293
0.675298
0.675302
0.675306
0.675306
0.67531
0.675315
0.675319
0.675323
0.675323
0.675327
0.675332
0.675336
0.67534
0.67534
0.675344
0.675349
0.675353
0.675357
0.675357
0.675362
0.675366
0.67537
0.675375
0.675375
0.675379
0.675383
0.675387
0.675392
0.675392
0.675396
0.6754
0.675405
0.675409
0.675409
0.675414
0.675418
0.675422
0.675427
0.675427
0.675431
0.675435
0.67544
0.675444
0.675444
0.675449
0.675453
0.675457
0.675462
0.675462
0.675466
0.675471
0.675475
0.67548
0.67548
0.675484
0.675488
0.675493
0.675497
0.675497
0.675502
0.675506
0.675511
0.675515
0.675515
0.67552
0.675524
0.675529
0.675533
0.675533
0.675538
0.675542
0.675547
0.675551
0.675551
0.675556
0.67556
0.675565
0.675569
0.675569
0.675574
0.675578
0.675583
0.675587
0.675587
0.675592
0.675597
0.675601
0.675606
0.675606
0.67561
0.675615
0.675619
0.675624
0.675624
0.675629
0.675633
0.675638
0.675643
0.675643
0.675647
0.675652
0.675656
0.675661
0.675661
0.675666
0.67567
0.675675
0.67568
0.67568
0.675684
0.675689
0.675694
0.675698
0.675698
0.675703
0.675708
0.675712
0.675717
0.675717
0.675722
0.675726
0.675731
0.675736
0.675736
0.675741
0.675745
0.67575
0.675755
0.675755
0.67576
0.675764
0.675769
0.675774
0.675774
0.675779
0.675783
0.675788
0.675793
0.675793
0.675798
0.675803
0.675807
0.675812
0.675812
0.675817
0.675822
0.675827
0.675831
0.675831
0.675836
0.675841
0.675846
0.675851
0.675851
0.675856
0.67586
0.675865
0.67587
0.67587
0.675875
0.67588
0.675885
0.67589
0.67589
0.675894
0.675899
0.675904
0.675909
0.675909
0.675914
0.675919
0.675924
0.675929
0.675929
0.675934
0.675939
0.675944
0.675949
0.675949
0.675954
0.675958
0.675963
0.675968
0.675968
0.675973
0.675978
0.675983
0.675988
0.675988
0.675993
0.675998
0.676003
0.676008
0.676008
0.676013
0.676018
0.676023
0.676028
0.676028
0.676033
0.676038
0.676044
0.676049
0.676049
0.676054
0.676059
0.676064
0.676069
0.676069
0.676074
0.676079
0.676084
0.676089
0.676089
0.676094
0.676099
0.676104
0.676109
0.676109
0.676115
0.67612
0.676125
0.67613
0.67613
0.676135
0.67614
0.676145
0.676151
0.676151
0.676156
0.676161
0.676166
0.676171
0.676171
0.676176
0.676182
0.676187
0.676192
0.676192
0.676197
0.676202
0.676208
0.676213
0.676213
0.676218
0.676223
0.676228
0.676234
0.676234
0.676239
0.676244
0.676249
0.676255
0.676255
0.67626
0.676265
0.67627
0.676276
0.676276
0.676281
0.676286
0.676292
0.676297
0.676297
0.676302
0.676307
0.676313
0.676318
0.676318
0.676323
0.676329
0.676334
0.676339
0.676339
0.676345
0.67635
0.676355
0.676361
0.676361
0.676366
0.676372
0.676377
0.676382
0.676382
0.676388
0.676393
0.676398
0.676404
0.676404
0.676409
0.676415
0.67642
0.676426
0.676426
0.676431
0.676436
0.676442
0.676447
0.676447
0.676453
0.676458
0.676464
0.676469
0.676469
0.676475
0.67648
0.676485
0.676491
0.676491
0.676496
0.676502
0.676507
0.676513
0.676513
0.676518
0.676524
0.676529
0.676535
0.676535
0.676541
0.676546
0.676552
0.676557
0.676557
0.676563
0.676568
0.676574
0.676579
0.676579
0.676585
0.676591
0.676596
0.676602
0.676602
0.676607
0.676613
0.676618
0.676624
0.676624
0.67663
0.676635
0.676641
0.676647
0.676647
0.676652
0.676658
0.676663
0.676669
0.676669
0.676675
0.67668
0.676686
0.676692
0.676692
0.676697
0.676703
0.676709
0.676715
0.676715
0.67672
0.676726
0.676732
0.676737
0.676737
0.676743
0.676749
0.676754
0.67676
0.67676
0.676766
0.676772
0.676777
0.676783
0.676783
0.676789
0.676795
0.6768
0.676806
0.676806
0.676812
0.676818
0.676824
0.676829
0.676829
0.676835
0.676841
0.676847
0.676853
0.676853
0.676858
0.676864
0.67687
0.676876
0.676876
0.676882
0.676888
0.676894
0.676899
0.676899
0.676905
0.676911
0.676917
0.676923
0.676923
0.676929
0.676935
0.676941
0.676946
0.676946
0.676952
0.676958
0.676964
0.67697
0.67697
0.676976
0.676982
0.676988
0.676994
0.676994
0.677
0.677006
0.677012
0.677018
0.677018
0.677024
0.67703
0.677036
0.677042
0.677042
0.677047
0.677053
0.67706
0.677066
0.677066
0.677072
0.677078
0.677084
0.67709
0.67709
0.677096
0.677102
0.677108
0.677114
0.677114
0.67712
0.677126
0.677132
0.677138
0.677138
0.677144
0.67715
0.677156
0.677162
0.677162
0.677168
0.677174
0.677181
0.677187
0.677187
0.677193
0.677199
0.677205
0.677211
0.677211
0.677217
0.677223
0.67723
0.677236
0.677236
0.677242
0.677248
0.677254
0.67726
0.67726
0.677267
0.677273
0.677279
0.677285
0.677285
0.677291
0.677298
0.677304
0.67731
0.67731
0.677316
0.677322
0.677329
0.677335
0.677335
0.677341
0.677347
0.677354
0.67736
0.67736
0.677366
0.677372
0.677379
0.677385
0.677385
0.677391
0.677398
0.677404
0.67741
0.67741
0.677417
0.677423
0.677429
0.677435
0.677435
0.677442
0.677448
0.677454
0.677461
0.677461
0.677467
0.677474
0.67748
0.677486
0.677486
0.677493
0.677499
0.677505
0.677512
0.677512
0.677518
0.677525
0.677531
0.677537
0.677537
0.677544
0.67755
0.677557
0.677563
0.677563
0.677569
0.677576
0.677582
0.677589
0.677589
0.677595
0.677602
0.677608
0.677615
0.677615
0.677621
0.677628
0.677634
0.677641
0.677641
0.677647
0.677654
0.67766
0.677667
0.677667
0.677673
0.67768
0.677686
0.677693
0.677693
0.677699
0.677706
0.677712
0.677719
0.677719
0.677725
0.677732
0.677739
0.677745
0.677745
0.677752
0.677758
0.677765
0.677772
0.677772
0.677778
0.677785
0.677791
0.677798
0.677798
0.677805
0.677811
0.677818
0.677825
0.677825
0.677831
0.677838
0.677845
0.677851
0.677851
0.677858
0.677865
0.677871
0.677878
0.677878
0.677885
0.677891
0.677898
0.677905
0.677905
0.677911
0.677918
0.677925
0.677932
0.677932
0.677938
0.677945
0.677952
0.677959
0.677959
0.677965
0.677972
0.677979
0.677986
0.677986
0.677992
0.677999
0.678006
0.678013
0.678013
0.67802
0.678026
0.678033
0.67804
0.67804
0.678047
0.678054
0.67806
0.678067
0.678067
0.678074
0.678081
0.678088
0.678095
0.678095
0.678101
0.678108
0.678115
0.678122
0.678122
0.678129
0.678136
0.678143
0.67815
0.67815
0.678157
0.678164
0.67817
0.678177
0.678177
0.678184
0.678191
0.678198
0.678205
0.678205
0.678212
0.678219
0.678226
0.678233
0.678233
0.67824
0.678247
0.678254
0.678261
0.678261
0.678268
0.678275
0.678282
0.678289
0.678289
0.678296
0.678303
0.67831
0.678317
0.678317
0.678324
0.678331
0.678338
0.678345
0.678345
0.678352
0.678359
0.678366
0.678373
0.678373
0.67838
0.678388
0.678395
0.678402
0.678402
0.678409
0.678416
0.678423
0.67843
0.67843
0.678437
0.678444
0.678452
0.678459
0.678459
0.678466
0.678473
0.67848
0.678487
0.678487
0.678494
0.678502
0.678509
0.678516
0.678516
0.678523
0.67853
0.678538
0.678545
0.678545
0.678552
0.678559
0.678566
0.678574
0.678574
0.678581
0.678588
0.678595
0.678603
0.678603
0.67861
0.678617
0.678624
0.678632
0.678632
0.678639
0.678646
0.678653
0.678661
0.678661
0.678668
0.678675
0.678683
0.67869
0.67869
0.678697
0.678705
0.678712
0.678719
0.678719
0.678727
0.678734
0.678741
0.678749
0.678749
0.678756
0.678763
0.678771
0.678778
0.678778
0.678786
0.678793
0.6788
0.678808
0.678808
0.678815
0.678823
0.67883
0.678837
0.678837
0.678845
0.678852
0.67886
0.678867
0.678867
0.678875
0.678882
0.678889
0.678897
0.678897
0.678904
0.678912
0.678919
0.678927
0.678927
0.678934
0.678942
0.678949
0.678957
0.678957
0.678964
0.678972
0.678979
0.678987
0.678987
0.678994
0.679002
0.67901
0.679017
0.679017
0.679025
0.679032
0.67904
0.679047
0.679047
0.679055
0.679063
0.67907
0.679078
0.679078
0.679085
0.679093
0.679101
0.679108
0.679108
0.679116
0.679123
0.679131
0.679139
0.679139
0.679146
0.679154
0.679162
0.679169
0.679169
0.679177
0.679185
0.679192
0.6792
0.6792
0.679208
0.679215
0.679223
0.679231
0.679231
0.679239
0.679246
0.679254
0.679262
0.679262
0.679269
0.679277
0.679285
0.679293
0.679293
0.6793
0.679308
0.679316
0.679324
0.679324
0.679332
0.679339
0.679347
0.679355
0.679355
0.679363
0.679371
0.679378
0.679386
0.679386
0.679394
0.679402
0.67941
0.679417
0.679417
0.679425
0.679433
0.679441
0.679449
0.679449
0.679457
0.679465
0.679472
0.67948
0.67948
0.679488
0.679496
0.679504
0.679512
0.679512
0.67952
0.679528
0.679536
0.679544
0.679544
0.679552
0.67956
0.679567
0.679575
0.679575
0.679583
0.679591
0.679599
0.679607
0.679607
0.679615
0.679623
0.679631
0.679639
0.679639
0.679647
0.679655
0.679663
0.679671
0.679671
0.679679
0.679687
0.679695
0.679703
0.679703
0.679711
0.679719
0.679728
0.679736
0.679736
0.679744
0.679752
0.67976
0.679768
0.679768
0.679776
0.679784
0.679792
0.6798
0.6798
0.679808
0.679817
0.679825
0.679833
0.679833
0.679841
0.679849
0.679857
0.679865
0.679865
0.679874
0.679882
0.67989
0.679898
0.679898
0.679906
0.679914
0.679923
0.679931
0.679931
0.679939
0.679947
0.679955
0.679964
0.679964
0.679972
0.67998
0.679988
0.679997
0.679997
0.680005
0.680013
0.680021
0.68003
0.68003
0.680038
0.680046
0.680054
0.680063
0.680063
0.680071
0.680079
0.680088
0.680096
0.680096
0.680104
0.680113
0.680121
0.680129
0.680129
0.680137
0.680146
0.680154
0.680163
0.680163
0.680171
0.680179
0.680188
0.680196
0.680196
0.680204
0.680213
0.680221
0.68023
0.68023
0.680238
0.680246
0.680255
0.680263
0.680263
0.680272
0.68028
0.680289
0.680297
0.680297
0.680305
0.680314
0.680322
0.680331
0.680331
0.680339
0.680348
0.680356
0.680365
0.680365
0.680373
0.680382
0.68039
0.680399
0.680399
0.680407
0.680416
0.680424
0.680433
0.680433
0.680441
0.68045
0.680458
0.680467
0.680467
0.680476
0.680484
0.680493
0.680501
0.680501
0.68051
0.680518
0.680527
0.680536
0.680536
0.680544
0.680553
0.680561
0.68057
0.68057
0.680579
0.680587
0.680596
0.680605
0.680605
0.680613
0.680622
0.680631
0.680639
0.680639
0.680648
0.680657
0.680665
0.680674
0.680674
0.680683
0.680691
0.6807
0.680709
0.680709
0.680718
0.680726
0.680735
0.680744
0.680744
0.680753
0.680761
0.68077
0.680779
0.680779
0.680788
0.680796
0.680805
0.680814
0.680814
0.680823
0.680831
0.68084
0.680849
0.680849
0.680858
0.680867
0.680876
0.680884
0.680884
0.680893
0.680902
0.680911
0.68092
0.68092
0.680929
0.680937
0.680946
0.680955
0.680955
0.680964
0.680973
0.680982
0.680991
0.680991
0.681
0.681009
0.681017
0.681026
0.681026
0.681035
0.681044
0.681053
0.681062
0.681062
0.681071
0.68108
0.681089
0.681098
0.681098
0.681107
0.681116
0.681125
0.681134
0.681134
0.681143
0.681152
0.681161
0.68117
0.68117
0.681179
0.681188
0.681197
0.681206
0.681206
0.681215
0.681224
0.681233
0.681242
0.681242
0.681251
0.68126
0.681269
0.681278
0.681278
0.681288
0.681297
0.681306
0.681315
0.681315
0.681324
0.681333
0.681342
0.681351
0.681351
0.68136
0.68137
0.681379
0.681388
0.681388
0.681397
0.681406
0.681415
0.681425
0.681425
0.681434
0.681443
0.681452
0.681461
0.681461
0.68147
0.68148
0.681489
0.681498
0.681498
0.681507
0.681517
0.681526
0.681535
0.681535
0.681544
0.681554
0.681563
0.681572
0.681572
0.681581
0.681591
0.6816
0.681609
0.681609
0.681618
0.681628
0.681637
0.681646
0.681646
0.681656
0.681665
0.681674
0.681684
0.681684
0.681693
0.681702
0.681712
0.681721
0.681721
0.68173
0.68174
0.681749
0.681759
0.681759
0.681768
0.681777
0.681787
0.681796
0.681796
0.681806
0.681815
0.681824
0.681834
0.681834
0.681843
0.681853
0.681862
0.681872
0.681872
0.681881
0.681891
0.6819
0.681909
0.681909
0.681919
0.681928
0.681938
0.681947
0.681947
0.681957
0.681966
0.681976
0.681985
0.681985
0.681995
0.682004
0.682014
0.682024
0.682024
0.682033
0.682043
0.682052
0.682062
0.682062
0.682071
0.682081
0.682091
0.6821
0.6821
0.68211
0.682119
0.682129
0.682139
0.682139
0.682148
0.682158
0.682167
0.682177
0.682177
0.682187
0.682196
0.682206
0.682216
0.682216
0.682225
0.682235
0.682245
0.682254
0.682254
0.682264
0.682274
0.682283
0.682293
0.682293
0.682303
0.682313
0.682322
0.682332
0.682332
0.682342
0.682352
0.682361
0.682371
0.682371
0.682381
0.682391
0.6824
0.68241
0.68241
0.68242
0.68243
0.682439
0.682449
0.682449
0.682459
0.682469
0.682479
0.682489
0.682489
0.682498
0.682508
0.682518
0.682528
0.682528
0.682538
0.682548
0.682557
0.682567
0.682567
0.682577
0.682587
0.682597
0.682607
0.682607
0.682617
0.682627
0.682637
0.682647
0.682647
0.682656
0.682666
0.682676
0.682686
0.682686
0.682696
0.682706
0.682716
0.682726
0.682726
0.682736
0.682746
0.682756
0.682766
0.682766
0.682776
0.682786
0.682796
0.682806
0.682806
0.682816
0.682826
0.682836
0.682846
0.682846
0.682856
0.682866
0.682876
0.682886
0.682886
0.682896
0.682906
0.682917
0.682927
0.682927
0.682937
0.682947
0.682957
0.682967
0.682967
0.682977
0.682987
0.682997
0.683008
0.683008
0.683018
0.683028
0.683038
0.683048
0.683048
0.683058
0.683068
0.683079
0.683089
0.683089
0.683099
0.683109
0.683119
0.68313
0.68313
0.68314
0.68315
0.68316
0.68317
0.68317
0.683181
0.683191
0.683201
0.683211
0.683211
0.683222
0.683232
0.683242
0.683252
0.683252
0.683263
0.683273
0.683283
0.683294
0.683294
0.683304
0.683314
0.683325
0.683335
0.683335
0.683345
0.683356
0.683366
0.683376
0.683376
0.683387
0.683397
0.683407
0.683418
0.683418
0.683428
0.683438
0.683449
0.683459
0.683459
0.68347
0.68348
0.68349
0.683501
0.683501
0.683511
0.683522
0.683532
0.683543
0.683543
0.683553
0.683563
0.683574
0.683584
0.683584
0.683595
0.683605
0.683616
0.683626
0.683626
0.683637
0.683647
0.683658
0.683668
0.683668
0.683679
0.683689
0.6837
0.68371
0.68371
0.683721
0.683732
0.683742
0.683753
0.683753
0.683763
0.683774
0.683784
0.683795
0.683795
0.683806
0.683816
0.683827
0.683837
0.683837
0.683848
0.683859
0.683869
0.68388
0.68388
0.683891
0.683901
0.683912
0.683922
0.683922
0.683933
0.683944
0.683954
0.683965
0.683965
0.683976
0.683987
0.683997
0.684008
0.684008
0.684019
0.684029
0.68404
0.684051
0.684051
0.684062
0.684072
0.684083
0.684094
0.684094
0.684105
0.684115
0.684126
0.684137
0.684137
0.684148
0.684158
0.684169
0.68418
0.68418
0.684191
0.684202
0.684213
0.684223
0.684223
0.684234
0.684245
0.684256
0.684267
0.684267
0.684278
0.684288
0.684299
0.68431
0.68431
0.684321
0.684332
0.684343
0.684354
0.684354
0.684365
0.684376
0.684387
0.684397
0.684397
0.684408
0.684419
0.68443
0.684441
0.684441
0.684452
0.684463
0.684474
0.684485
0.684485
0.684496
0.684507
0.684518
0.684529
0.684529
0.68454
0.684551
0.684562
0.684573
0.684573
0.684584
0.684595
0.684606
0.684617
0.684617
0.684628
0.684639
0.68465
0.684662
0.684662
0.684673
0.684684
0.684695
0.684706
0.684706
0.684717
0.684728
0.684739
0.68475
0.68475
0.684761
0.684773
0.684784
0.684795
0.684795
0.684806
0.684817
0.684828
0.684839
0.684839
0.684851
0.684862
0.684873
0.684884
0.684884
0.684895
0.684907
0.684918
0.684929
0.684929
0.68494
0.684951
0.684963
0.684974
0.684974
0.684985
0.684996
0.685008
0.685019
0.685019
0.68503
0.685042
0.685053
0.685064
0.685064
0.685075
0.685087
0.685098
0.685109
0.685109
0.685121
0.685132
0.685143
0.685155
0.685155
0.685166
0.685177
0.685189
0.6852
0.6852
0.685212
0.685223
0.685234
0.685246
0.685246
0.685257
0.685269
0.68528
0.685291
0.685291
0.685303
0.685314
0.685326
0.685337
0.685337
0.685348
0.68536
0.685371
0.685383
0.685383
0.685394
0.685406
0.685417
0.685429
0.685429
0.68544
0.685452
0.685463
0.685475
0.685475
0.685486
0.685498
0.685509
0.685521
0.685521
0.685532
0.685544
0.685556
0.685567
0.685567
0.685579
0.68559
0.685602
0.685613
0.685613
0.685625
0.685637
0.685648
0.68566
0.68566
0.685672
0.685683
0.685695
0.685706
0.685706
0.685718
0.68573
0.685741
0.685753
0.685753
0.685765
0.685776
0.685788
0.6858
0.6858
0.685811
0.685823
0.685835
0.685847
0.685847
0.685858
0.68587
0.685882
0.685894
0.685894
0.685905
0.685917
0.685929
0.685941
0.685941
0.685952
0.685964
0.685976
0.685988
0.685988
0.685999
0.686011
0.686023
0.686035
0.686035
0.686047
0.686059
0.68607
0.686082
0.686082
0.686094
0.686106
0.686118
0.68613
0.68613
0.686142
0.686153
0.686165
0.686177
0.686177
0.686189
0.686201
0.686213
0.686225
0.686225
0.686237
0.686249
0.686261
0.686273
0.686273
0.686284
0.686296
0.686308
0.68632
0.68632
0.686332
0.686344
0.686356
0.686368
0.686368
0.68638
0.686392
0.686404
0.686416
0.686416
0.686428
0.68644
0.686452
0.686464
0.686464
0.686476
0.686489
0.686501
0.686513
0.686513
0.686525
0.686537
0.686549
0.686561
0.686561
0.686573
0.686585
0.686597
0.686609
0.686609
0.686622
0.686634
0.686646
0.686658
0.686658
0.68667
0.686682
0.686694
0.686707
0.686707
0.686719
0.686731
0.686743
0.686755
0.686755
0.686767
0.68678
0.686792
0.686804
0.686804
0.686816
0.686829
0.686841
0.686853
0.686853
0.686865
0.686878
0.68689
0.686902
0.686902
0.686914
0.686927
0.686939
0.686951
0.686951
0.686964
0.686976
0.686988
0.687
0.687
0.687013
0.687025
0.687037
0.68705
0.68705
0.687062
0.687075
0.687087
0.687099
0.687099
0.687112
0.687124
0.687136
0.687149
0.687149
0.687161
0.687174
0.687186
0.687198
0.687198
0.687211
0.687223
0.687236
0.687248
0.687248
0.687261
0.687273
0.687286
0.687298
0.687298
0.687311
0.687323
0.687336
0.687348
0.687348
0.687361
0.687373
0.687386
0.687398
0.687398
0.687411
0.687423
0.687436
0.687448
0.687448
0.687461
0.687473
0.687486
0.687499
0.687499
0.687511
0.687524
0.687536
0.687549
0.687549
0.687562
0.687574
0.687587
0.687599
0.687599
0.687612
0.687625
0.687637
0.68765
0.68765
0.687663
0.687675
0.687688
0.687701
0.687701
0.687713
0.687726
0.687739
0.687751
0.687751
0.687764
0.687777
0.68779
0.687802
0.687802
0.687815
0.687828
0.687841
0.687853
0.687853
0.687866
0.687879
0.687892
0.687904
0.687904
0.687917
0.68793
0.687943
0.687956
0.687956
0.687968
0.687981
0.687994
0.688007
0.688007
0.68802
0.688033
0.688045
0.688058
0.688058
0.688071
0.688084
0.688097
0.68811
0.68811
0.688123
0.688136
0.688148
0.688161
0.688161
0.688174
0.688187
0.6882
0.688213
0.688213
0.688226
0.688239
0.688252
0.688265
0.688265
0.688278
0.688291
0.688304
0.688317
0.688317
0.68833
0.688343
0.688356
0.688369
0.688369
0.688382
0.688395
0.688408
0.688421
0.688421
0.688434
0.688447
0.68846
0.688473
0.688473
0.688486
0.688499
0.688512
0.688526
0.688526
0.688539
0.688552
0.688565
0.688578
0.688578
0.688591
0.688604
0.688617
0.688631
0.688631
0.688644
0.688657
0.68867
0.688683
0.688683
0.688696
0.68871
0.688723
0.688736
0.688736
0.688749
0.688762
0.688776
0.688789
0.688789
0.688802
0.688815
0.688829
0.688842
0.688842
0.688855
0.688868
0.688882
0.688895
0.688895
0.688908
0.688921
0.688935
0.688948
0.688948
0.688961
0.688975
0.688988
0.689001
0.689001
0.689015
0.689028
0.689041
0.689055
0.689055
0.689068
0.689081
0.689095
0.689108
0.689108
0.689122
0.689135
0.689148
0.689162
0.689162
0.689175
0.689189
0.689202
0.689216
0.689216
0.689229
0.689242
0.689256
0.689269
0.689269
0.689283
0.689296
0.68931
0.689323
0.689323
0.689337
0.68935
0.689364
0.689377
0.689377
0.689391
0.689404
0.689418
0.689431
0.689431
0.689445
0.689458
0.689472
0.689486
0.689486
0.689499
0.689513
0.689526
0.68954
0.68954
0.689554
0.689567
0.689581
0.689594
0.689594
0.689608
0.689622
0.689635
0.689649
0.689649
0.689663
0.689676
0.68969
0.689704
0.689704
0.689717
0.689731
0.689745
0.689758
0.689758
0.689772
0.689786
0.6898
0.689813
0.689813
0.689827
0.689841
0.689854
0.689868
0.689868
0.689882
0.689896
0.68991
0.689923
0.689923
0.689937
0.689951
0.689965
0.689978
0.689978
0.689992
0.690006
0.69002
0.690034
0.690034
0.690048
0.690061
0.690075
0.690089
0.690089
0.690103
0.690117
0.690131
0.690145
0.690145
0.690159
0.690172
0.690186
0.6902
0.6902
0.690214
0.690228
0.690242
0.690256
0.690256
0.69027
0.690284
0.690298
0.690312
0.690312
0.690326
0.69034
0.690354
0.690368
0.690368
0.690382
0.690396
0.69041
0.690424
0.690424
0.690438
0.690452
0.690466
0.69048
0.69048
0.690494
0.690508
0.690522
0.690536
0.690536
0.69055
0.690564
0.690579
0.690593
0.690593
0.690607
0.690621
0.690635
0.690649
0.690649
0.690663
0.690677
0.690692
0.690706
0.690706
0.69072
0.690734
0.690748
0.690762
0.690762
0.690777
0.690791
0.690805
0.690819
0.690819
0.690833
0.690848
0.690862
0.690876
0.690876
0.69089
0.690905
0.690919
0.690933
0.690933
0.690947
0.690962
0.690976
0.69099
0.69099
0.691005
0.691019
0.691033
0.691048
0.691048
0.691062
0.691076
0.691091
0.691105
0.691105
0.691119
0.691134
0.691148
0.691162
0.691162
0.691177
0.691191
0.691205
0.69122
0.69122
0.691234
0.691249
0.691263
0.691278
0.691278
0.691292
0.691306
0.691321
0.691335
0.691335
0.69135
0.691364
0.691379
0.691393
0.691393
0.691408
0.691422
0.691437
0.691451
0.691451
0.691466
0.69148
0.691495
0.691509
0.691509
0.691524
0.691538
0.691553
0.691568
0.691568
0.691582
0.691597
0.691611
0.691626
0.691626
0.691641
0.691655
0.69167
0.691684
0.691684
0.691699
0.691714
0.691728
0.691743
0.691743
0.691758
0.691772
0.691787
0.691802
0.691802
0.691816
0.691831
0.691846
0.69186
0.69186
0.691875
0.69189
0.691904
0.691919
0.691919
0.691934
0.691949
0.691963
0.691978
0.691978
0.691993
0.692008
0.692023
0.692037
0.692037
0.692052
0.692067
0.692082
0.692097
0.692097
0.692111
0.692126