<?xml version="1.0"?>
<VTKFile type="UnstructuredGrid" version="0.1" byte_order="LittleEndian">
<UnstructuredGrid>
<Piece NumberOfPoints="5000" NumberOfCells="4000">
<PointData Scalars="Reaction 0">
<DataArray type="Float32" Name="Reaction 0" format="ascii">
0.559338
0.559338
0.559338
0.559338
0.559338
0.559338
0.559338
0.559339
0.559339
0.559339
0.559339
0.55934
0.55934
0.559341
0.559341
0.559341
0.559342
0.559343
0.559344
0.559345
0.559345
0.559345
0.559346
0.559347
0.559348
0.559348
0.55935
0.559351
0.559352
0.559353
0.559353
0.559355
0.559356
0.559357
0.559359
0.559359
0.55936
0.559362
0.559364
0.559365
0.559365
0.559367
0.559369
0.559371
0.559373
0.559373
0.559375
0.559377
0.559379
0.559381
0.559381
0.559383
0.559386
0.559388
0.55939
0.55939
0.559393
0.559395
0.559398
0.5594
0.5594
0.559403
0.559406
0.559408
0.559411
0.559411
0.559414
0.559417
0.55942
0.559423
0.559423
0.559426
0.559429
0.559432
0.559436
0.559436
0.559439
0.559442
0.559446
0.559449
0.559449
0.559453
0.559456
0.55946
0.559463
0.559463
0.559467
0.559471
0.559475
0.559479
0.559479
0.559483
0.559487
0.559491
0.559495
0.559495
0.559499
0.559503
0.559507
0.559512
0.559512
0.559516
0.559521
0.559525
0.55953
0.55953
0.559534
0.559539
0.559544
0.559548
0.559548
0.559553
0.559558
0.559563
0.559568
0.559568
0.559573
0.559578
0.559583
0.559588
0.559588
0.559594
0.559599
0.559604
0.55961
0.55961
0.559615
0.559621
0.559626
0.559632
0.559632
0.559638
0.559644
0.559649
0.559655
0.559655
0.559661
0.559667
0.559673
0.559679
0.559679
0.559685
0.559692
0.559698
0.559704
0.559704
0.55971
0.559717
0.559723
0.55973
0.55973
0.559736
0.559743
0.55975
0.559756
0.559756
0.559763
0.55977
0.559777
0.559784
0.559784
0.559791
0.559798
0.559805
0.559812
0.559812
0.55982
0.559827
0.559834
0.559842
0.559842
0.559849
0.559857
0.559864
0.559872
0.559872
0.559879
0.559887
0.559895
0.559903
0.559903
0.559911
0.559919
0.559927
0.559935
0.559935
0.559943
0.559951
0.559959
0.559967
0.559967
0.559976
0.559984
0.559993
0.560001
0.560001
0.560009
0.560018
0.560026
0.560034
0.560034
0.560043
0.560051
0.56006
0.560068
0.560068
0.560077
0.560086
0.560095
0.560103
0.560103
0.560112
0.560121
0.56013
0.560139
0.560139
0.560148
0.560158
0.560167
0.560176
0.560176
0.560185
0.560195
0.560204
0.560214
0.560214
0.560223
0.560233
0.560242
0.560252
0.560252
0.560262
0.560271
0.560281
0.560291
0.560291
0.560301
0.560311
0.560321
0.560331
0.560331
0.560341
0.560352
0.560362
0.560372
0.560372
0.560382
0.560393
0.560403
0.560414
0.560414
0.560424
0.560435
0.560446
0.560457
0.560457
0.560467
0.560478
0.560489
0.5605
0.5605
0.560511
0.560522
0.560533
0.560544
0.560544
0.560556
0.560567
0.560578
0.56059
0.56059
0.560601
0.560612
0.560624
0.560636
0.560636
0.560647
0.560659
0.560671
0.560682
0.560682
0.560694
0.560706
0.560718
0.56073
0.56073
0.560742
0.560754
0.560766
0.560779
0.560779
0.560791
0.560803
0.560816
0.560828
0.560828
0.560841
0.560853
0.560866
0.560878
0.560878
0.560891
0.560904
0.560917
0.56093
0.56093
0.560942
0.560955
0.560968
0.560981
0.560981
0.560995
0.561008
0.561021
0.561034
0.561034
0.561048
0.561061
0.561074
0.561088
0.561088
0.561101
0.561115
0.561129
0.561142
0.561142
0.561156
0.56117
0.561184
0.561198
0.561198
0.561212
0.561226
0.56124
0.561254
0.561254
0.561268
0.561282
0.561297
0.561311
0.561311
0.561325
0.56134
0.561354
0.561369
0.561369
0.561384
0.561398
0.561413
0.561428
0.561428
0.561442
0.561457
0.561472
0.561487
0.561487
0.561502
0.561517
0.561532
0.561548
0.561548
0.561563
0.561578
0.561594
0.561609
0.561609
0.561624
0.56164
0.561655
0.561671
0.561671
0.561687
0.561702
0.561718
0.561734
0.561734
0.561749
0.561764
0.561779
0.561795
0.561795
0.56181
0.561825
0.561841
0.561856
0.561856
0.561872
0.561887
0.561903
0.561918
0.561918
0.561934
0.56195
0.561966
0.561982
0.561982
0.561997
0.562013
0.562029
0.562045
0.562045
0.562062
0.562078
0.562094
0.56211
0.56211
0.562126
0.562143
0.562159
0.562176
0.562176
0.562192
0.562209
0.562225
0.562242
0.562242
0.562259
0.562275
0.562292
0.562309
0.562309
0.562326
0.562343
0.56236
0.562377
0.562377
0.562394
0.562411
0.562428
0.562446
0.562446
0.562463
0.56248
0.562498
0.562515
0.562515
0.562533
0.56255
0.562568
0.562585
0.562585
0.562603
0.562621
0.562639
0.562657
0.562657
0.562674
0.562692
0.56271
0.562728
0.562728
0.562747
0.562765
0.562783
0.562801
0.562801
0.562819
0.562838
0.562856
0.562875
0.562875
0.562893
0.562912
0.56293
0.562949
0.562949
0.562967
0.562986
0.563005
0.563024
0.563024
0.563043
0.563062
0.563081
0.5631
0.5631
0.563119
0.563138
0.563157
0.563176
0.563176
0.563195
0.563215
0.563234
0.563254
0.563254
0.563273
0.563293
0.563312
0.563332
0.563332
0.563351
0.563371
0.563391
0.56341
0.56341
0.563429
0.563448
0.563467
0.563486
0.563486
0.563505
0.563524
0.563543
0.563562
0.563562
0.563581
0.563601
0.56362
0.563639
0.563639
0.563659
0.563678
0.563697
0.563717
0.563717
0.563737
0.563756
0.563776
0.563796
0.563796
0.563815
0.563835
0.563855
0.563875
0.563875
0.563895
0.563915
0.563935
0.563955
0.563955
0.563975
0.563995
0.564015
0.564036
0.564036
0.564056
0.564076
0.564097
0.564117
0.564117
0.564138
0.564158
0.564179
0.564199
0.564199
0.56422
0.564241
0.564262
0.564282
0.564282
0.564303
0.564324
0.564345
0.564366
0.564366
0.564387
0.564408
0.564429
0.56445
0.56445
0.564472
0.564493
0.564514
0.564536
0.564536
0.564557
0.564578
0.5646
0.564621
0.564621
0.564643
0.564665
0.564686
0.564708
0.564708
0.56473
0.564752
0.564773
0.564795
0.564795
0.564817
0.564839
0.564861
0.564883
0.564883
0.564905
0.564928
0.56495
0.564972
0.564972
0.564994
0.565015
0.565037
0.565058
0.565058
0.565079
0.5651
0.565122
0.565143
0.565143
0.565165
0.565186
0.565208
0.565229
0.565229
0.565251
0.565273
0.565294
0.565316
0.565316
0.565338
0.56536
0.565382
0.565404
0.565404
0.565426
0.565448
0.56547
0.565492
0.565492
0.565514
0.565536
0.565558
0.565581
0.565581
0.565603
0.565625
0.565648
0.56567
0.56567
0.565693
0.565715
0.565738
0.56576
0.56576
0.565783
0.565806
0.565828
0.565851
0.565851
0.565874
0.565897
0.56592
0.565943
0.565943
0.565965
0.565988
0.566012
0.566035
0.566035
0.566058
0.566081
0.566104
0.566127
0.566127
0.566151
0.566174
0.566197
0.566221
0.566221
0.566244
0.566268
0.566291
0.566315
0.566315
0.566339
0.566362
0.566386
0.56641
0.56641
0.566434
0.566457
0.566481
0.566504
0.566504
0.566527
0.56655
0.566573
0.566596
0.566596
0.566619
0.566642
0.566665
0.566688
0.566688
0.566711
0.566734
0.566757
0.56678
0.56678
0.566803
0.566826
0.56685
0.566873
0.566873
0.566896
0.566919
0.566943
0.566966
0.566966
0.56699
0.567013
0.567037
0.56706
0.56706
0.567084
0.567108
0.567131
0.567155
0.567155
0.567179
0.567203
0.567226
0.56725
0.56725
0.567274
0.567298
0.567322
0.567346
0.567346
0.56737
0.567394
0.567419
0.567443
0.567443
0.567467
0.567491
0.567516
0.56754
0.56754
0.567564
0.567589
0.567613
0.567638
0.567638
0.567662
0.567687
0.567711
0.567736
0.567736
0.567761
0.567785
0.56781
0.567835
0.567835
0.56786
0.567884
0.567909
0.567933
0.567933
0.567957
0.567981
0.568005
0.568029
0.568029
0.568053
0.568077
0.5681
0.568124
0.568124
0.568148
0.568172
0.568196
0.56822
0.56822
0.568244
0.568268
0.568293
0.568317
0.568317
0.568341
0.568365
0.56839
0.568414
0.568414
0.568438
0.568463
0.568487
0.568511
0.568511
0.568536
0.56856
0.568585
0.56861
0.56861
0.568634
0.568659
0.568684
0.568708
0.568708
0.568733
0.568758
0.568783
0.568808
0.568808
0.568832
0.568857
0.568882
0.568907
0.568907
0.568932
0.568957
0.568983
0.569008
0.569008
0.569033
0.569058
0.569083
0.569109
0.569109
0.569134
0.569159
0.569185
0.56921
0.56921
0.569235
0.56926
0.569285
0.56931
0.56931
0.569334
0.569359
0.569383
0.569408
0.569408
0.569432
0.569456
0.569481
0.569505
0.569505
0.56953
0.569554
0.569579
0.569603
0.569603
0.569628
0.569653
0.569677
0.569702
0.569702
0.569727
0.569751
0.569776
0.569801
0.569801
0.569826
0.569851
0.569876
0.569901
0.569901
0.569926
0.569951
0.569976
0.570001
0.570001
0.570026
0.570051
0.570076
0.570101
0.570101
0.570127
0.570152
0.570177
0.570203
0.570203
0.570228
0.570253
0.570279
0.570304
0.570304
0.57033
0.570355
0.570381
0.570406
0.570406
0.570432
0.570457
0.570483
0.570509
0.570509
0.570534
0.570559
0.570584
0.570609
0.570609
0.570633
0.570658
0.570683
0.570707
0.570707
0.570732
0.570756
0.570781
0.570806
0.570806
0.57083
0.570855
0.57088
0.570905
0.570905
0.57093
0.570954
0.570979
0.571004
0.571004
0.571029
0.571054
0.571079
0.571104
0.571104
0.571129
0.571154
0.57118
0.571205
0.571205
0.57123
0.571255
0.57128
0.571305
0.571305
0.571331
0.571356
0.571381
0.571407
0.571407
0.571432
0.571458
0.571483
0.571508
0.571508
0.571534
0.571559
0.571585
0.571611
0.571611
0.571636
0.571662
0.571687
0.571713
0.571713
0.571738
0.571763
0.571788
0.571813
0.571813
0.571837
0.571862
0.571887
0.571911
0.571911
0.571936
0.57196
0.571985
0.57201
0.57201
0.572034
0.572059
0.572084
0.572109
0.572109
0.572133
0.572158
0.572183
0.572208
0.572208
0.572233
0.572258
0.572283
0.572308
0.572308
0.572333
0.572358
0.572383
0.572408
0.572408
0.572433
0.572458
0.572483
0.572508
0.572508
0.572533
0.572559
0.572584
0.572609
0.572609
0.572634
0.57266
0.572685
0.57271
0.57271
0.572736
0.572761
0.572787
0.572812
0.572812
0.572837
0.572862
0.572887
0.572912
0.572912
0.572937
0.572961
0.572985
0.57301
0.57301
0.573034
0.573059
0.573083
0.573107
0.573107
0.573132
0.573156
0.573181
0.573205
0.573205
0.57323
0.573254
0.573279
0.573304
0.573304
0.573328
0.573353
0.573377
0.573402
0.573402
0.573427
0.573452
0.573476
0.573501
0.573501
0.573526
0.573551
0.573576
0.5736
0.5736
0.573625
0.57365
0.573675
0.5737
0.5737
0.573725
0.57375
0.573775
0.5738
0.5738
0.573825
0.57385
0.573875
0.5739
0.5739
0.573925
0.573949
0.573974
0.573998
0.573998
0.574022
0.574046
0.57407
0.574094
0.574094
0.574118
0.574142
0.574166
0.57419
0.57419
0.574215
0.574239
0.574263
0.574287
0.574287
0.574311
0.574335
0.57436
0.574384
0.574384
0.574408
0.574432
0.574457
0.574481
0.574481
0.574505
0.57453
0.574554
0.574578
0.574578
0.574603
0.574627
0.574652
0.574676
0.574676
0.574701
0.574725
0.57475
0.574774
0.574774
0.574799
0.574823
0.574848
0.574872
0.574872
0.574897
0.574921
0.574945
0.574969
0.574969
0.574993
0.575017
0.57504
0.575064
0.575064
0.575088
0.575111
0.575135
0.575158
0.575158
0.575182
0.575205
0.575229
0.575253
0.575253
0.575276
0.5753
0.575324
0.575348
0.575348
0.575371
0.575395
0.575419
0.575443
0.575443
0.575466
0.57549
0.575514
0.575538
0.575538
0.575562
0.575586
0.57561
0.575634
0.575634
0.575658
0.575682
0.575706
0.57573
0.57573
0.575754
0.575778
0.575802
0.575825
0.575825
0.575849
0.575873
0.575896
0.57592
0.57592
0.575943
0.575966
0.575989
0.576012
0.576012
0.576035
0.576058
0.576081
0.576104
0.576104
0.576127
0.57615
0.576173
0.576196
0.576196
0.57622
0.576243
0.576266
0.576289
0.576289
0.576312
0.576335
0.576359
0.576382
0.576382
0.576405
0.576428
0.576452
0.576475
0.576475
0.576498
0.576521
0.576545
0.576568
0.576568
0.576592
0.576615
0.576638
0.576662
0.576662
0.576685
0.576708
0.576731
0.576754
0.576754
0.576777
0.5768
0.576822
0.576845
0.576845
0.576867
0.57689
0.576912
0.576935
0.576935
0.576957
0.576979
0.577002
0.577024
0.577024
0.577047
0.577069
0.577092
0.577114
0.577114
0.577137
0.577159
0.577182
0.577204
0.577204
0.577227
0.577249
0.577272
0.577295
0.577295
0.577317
0.57734
0.577363
0.577385
0.577385
0.577408
0.577431
0.577453
0.577476
0.577476
0.577499
0.577521
0.577544
0.577566
0.577566
0.577588
0.577611
0.577633
0.577655
0.577655
0.577676
0.577698
0.57772
0.577742
0.577742
0.577763
0.577785
0.577807
0.577829
0.577829
0.57785
0.577872
0.577894
0.577916
0.577916
0.577938
0.577959
0.577981
0.578003
0.578003
0.578025
0.578047
0.578069
0.578091
0.578091
0.578113
0.578135
0.578157
0.578178
0.578178
0.5782
0.578222
0.578244
0.578266
0.578266
0.578288
0.57831
0.578332
0.578353
0.578353
0.578375
0.578396
0.578418
0.578439
0.578439
0.57846
0.578481
0.578502
0.578523
0.578523
0.578544
0.578565
0.578586
0.578607
0.578607
0.578628
0.578649
0.57867
0.578691
0.578691
0.578713
0.578734
0.578755
0.578776
0.578776
0.578797
0.578818
0.57884
0.578861
0.578861
0.578882
0.578903
0.578924
0.578946
0.578946
0.578967
0.578988
0.579009
0.57903
0.57903
0.579051
0.579072
0.579093
0.579114
0.579114
0.579134
0.579155
0.579175
0.579196
0.579196
0.579216
0.579236
0.579257
0.579277
0.579277
0.579297
0.579318
0.579338
0.579358
0.579358
0.579379
0.579399
0.579419
0.57944
0.57944
0.57946
0.579481
0.579501
0.579521
0.579521
0.579542
0.579562
0.579583
0.579603
0.579603
0.579624
0.579644
0.579665
0.579685
0.579685
0.579706
0.579726
0.579746
0.579766
0.579766
0.579786
0.579806
0.579826
0.579846
0.579846
0.579865
0.579885
0.579904
0.579924
0.579924
0.579944
0.579963
0.579983
0.580002
0.580002
0.580022
0.580042
0.580061
0.580081
0.580081
0.580101
0.58012
0.58014
0.58016
0.58016
0.580179
0.580199
0.580219
0.580238
0.580238
0.580258
0.580278
0.580297
0.580317
0.580317
0.580337
0.580356
0.580376
0.580395
0.580395
0.580415
0.580434
0.580453
0.580472
0.580472
0.580491
0.58051
0.580529
0.580547
0.580547
0.580566
0.580585
0.580604
0.580623
0.580623
0.580642
0.580661
0.580679
0.580698
0.580698
0.580717
0.580736
0.580755
0.580774
0.580774
0.580793
0.580812
0.580831
0.58085
0.58085
0.580869
0.580888
0.580906
0.580925
0.580925
0.580944
0.580963
0.580982
0.581
0.581
0.581019
0.581037
0.581056
0.581074
0.581074
0.581092
0.58111
0.581128
0.581147
0.581147
0.581165
0.581183
0.581201
0.581219
0.581219
0.581237
0.581255
0.581273
0.581292
0.581292
0.58131
0.581328
0.581346
0.581364
0.581364
0.581382
0.581401
0.581419
0.581437
0.581437
0.581455
0.581473
0.581491
0.58151
0.58151
0.581528
0.581546
0.581563
0.581581
0.581581
0.581599
0.581616
0.581634
0.581651
0.581651
0.581669
0.581686
0.581704
0.581721
0.581721
0.581738
0.581756
0.581773
0.581791
0.581791
0.581808
0.581825
0.581843
0.58186
0.58186
0.581878
0.581895
0.581913
0.58193
0.58193
0.581947
0.581965
0.581982
0.582
0.582
0.582017
0.582034
0.582052
0.582069
0.582069
0.582086
0.582103
0.58212
0.582137
0.582137
0.582154
0.582171
0.582187
0.582204
0.582204
0.582221
0.582237
0.582254
0.582271
0.582271
0.582287
0.582304
0.582321
0.582337
0.582337
0.582354
0.582371
0.582388
0.582404
0.582404
0.582421
0.582438
0.582454
0.582471
0.582471
0.582488
0.582504
0.582521
0.582538
0.582538
0.582554
0.582571
0.582587
0.582603
0.582603
0.58262
0.582636
0.582652
0.582668
0.582668
0.582684
0.5827
0.582716
0.582732
0.582732
0.582748
0.582764
0.58278
0.582796
0.582796
0.582812
0.582828
0.582844
0.58286
0.58286
0.582876
0.582892
0.582908
0.582924
0.582924
0.58294
0.582956
0.582971
0.582987
0.582987
0.583003
0.583019
0.583035
0.583051
0.583051
0.583066
0.583082
0.583097
0.583113
0.583113
0.583128
0.583143
0.583159
0.583174
0.583174
0.583189
0.583204
0.58322
0.583235
0.583235
0.58325
0.583265
0.583281
0.583296
0.583296
0.583311
0.583327
0.583342
0.583357
0.583357
0.583373
0.583388
0.583403
0.583418
0.583418
0.583434
0.583449
0.583464
0.583479
0.583479
0.583494
0.583509
0.583524
0.583538
0.583538
0.583553
0.583568
0.583582
0.583597
0.583597
0.583611
0.583626
0.583641
0.583655
0.583655
0.58367
0.583684
0.583699
0.583714
0.583714
0.583728
0.583743
0.583758
0.583772
0.583772
0.583787
0.583801
0.583816
0.583831
0.583831
0.583845
0.58386
0.583874
0.583888
0.583888
0.583903
0.583917
0.583931
0.583945
0.583945
0.583959
0.583973
0.583987
0.584001
0.584001
0.584015
0.584029
0.584043
0.584057
0.584057
0.584071
0.584085
0.584099
0.584113
0.584113
0.584127
0.584141
0.584155
0.584169
0.584169
0.584183
0.584196
0.58421
0.584224
0.584224
0.584238
0.584252
0.584266
0.584279
0.584279
0.584293
0.584306
0.58432
0.584333
0.584333
0.584347
0.58436
0.584374
0.584387
0.584387
0.5844
0.584413
0.584427
0.58444
0.58444
0.584453
0.584467
0.58448
0.584493
0.584493
0.584507
0.58452
0.584533
0.584547
0.584547
0.58456
0.584573
0.584587
0.5846
0.5846
0.584613
0.584626
0.584639
0.584652
0.584652
0.584665
0.584678
0.584691
0.584703
0.584703
0.584716
0.584729
0.584742
0.584754
0.584754
0.584767
0.58478
0.584793
0.584805
0.584805
0.584818
0.584831
0.584843
0.584856
0.584856
0.584869
0.584882
0.584894
0.584907
0.584907
0.58492
0.584932
0.584945
0.584957
0.584957
0.58497
0.584982
0.584995
0.585007
0.585007
0.585019
0.585031
0.585044
0.585056
0.585056
0.585068
0.58508
0.585092
0.585104
0.585104
0.585116
0.585129
0.585141
0.585153
0.585153
0.585165
0.585177
0.585189
0.585201
0.585201
0.585213
0.585226
0.585238
0.58525
0.58525
0.585262
0.585274
0.585285
0.585297
0.585297
0.585309
0.585321
0.585333
0.585344
0.585344
0.585356
0.585367
0.585379
0.585391
0.585391
0.585402
0.585414
0.585425
0.585437
0.585437
0.585448
0.58546
0.585472
0.585483
0.585483
0.585495
0.585506
0.585518
0.585529
0.585529
0.585541
0.585552
0.585564
0.585575
0.585575
0.585586
0.585598
0.585609
0.58562
0.58562
0.585631
0.585642
0.585653
0.585665
0.585665
0.585676
0.585687
0.585698
0.585709
0.585709
0.58572
0.585731
0.585742
0.585753
0.585753
0.585764
0.585775
0.585786
0.585797
0.585797
0.585808
0.585819
0.58583
0.585841
0.585841
0.585852
0.585862
0.585873
0.585884
0.585884
0.585895
0.585905
0.585916
0.585926
0.585926
0.585937
0.585947
0.585958
0.585968
0.585968
0.585979
0.585989
0.586
0.586011
0.586011
0.586021
0.586032
0.586042
0.586053
0.586053
0.586063
0.586074
0.586084
0.586094
0.586094
0.586105
0.586115
0.586125
0.586136
0.586136
0.586146
0.586156
0.586166
0.586176
0.586176
0.586186
0.586196
0.586206
0.586216
0.586216
0.586227
0.586237
0.586247
0.586257
0.586257
0.586267
0.586277
0.586287
0.586297
0.586297
0.586307
0.586317
0.586327
0.586337
0.586337
0.586347
0.586356
0.586366
0.586376
0.586376
0.586386
0.586395
0.586405
0.586415
0.586415
0.586424
0.586434
0.586444
0.586453
0.586453
0.586463
0.586472
0.586482
0.586491
0.586491
0.586501
0.586511
0.58652
0.58653
0.58653
0.586539
0.586549
0.586558
0.586568
0.586568
0.586577
0.586587
0.586596
0.586605
0.586605
0.586615
0.586624
0.586633
0.586642
0.586642
0.586651
0.586661
0.58667
0.586679
0.586679
0.586688
0.586697
0.586706
0.586715
0.586715
0.586724
0.586734
0.586743
0.586752
0.586752
0.586761
0.58677
0.586779
0.586788
0.586788
0.586797
0.586806
0.586815
0.586824
0.586824
0.586833
0.586841
0.58685
0.586859
0.586859
0.586868
0.586877
0.586885
0.586894
0.586894
0.586903
0.586911
0.58692
0.586929
0.586929
0.586937
0.586946
0.586955
0.586963
0.586963
0.586972
0.586981
0.586989
0.586998
0.586998
0.587006
0.587015
0.587024
0.587032
0.587032
0.58704
0.587049
0.587057
0.587066
0.587066
0.587074
0.587082
0.58709
0.587099
0.587099
0.587107
0.587115
0.587124
0.587132
0.587132
0.58714
0.587148
0.587157
0.587165
0.587165
0.587173
0.587181
0.58719
0.587198
0.587198
0.587206
0.587214
0.587222
0.58723
0.58723
0.587238
0.587246
0.587254
0.587262
0.587262
0.58727
0.587278
0.587286
0.587294
0.587294
0.587302
0.58731
0.587317
0.587325
0.587325
0.587333
0.587341
0.587349
0.587357
0.587357
0.587365
0.587373
0.58738
0.587388
0.587388
0.587396
0.587404
0.587411
0.587419
0.587419
0.587426
0.587434
0.587442
0.587449
0.587449
0.587457
0.587464
0.587472
0.587479
0.587479
0.587487
0.587494
0.587502
0.58751
0.58751
0.587517
0.587525
0.587532
0.587539
0.587539
0.587547
0.587554
0.587562
0.587569
0.587569
0.587576
0.587584
0.587591
0.587598
0.587598
0.587606
0.587613
0.58762
0.587627
0.587627
0.587634
0.587642
0.587649
0.587656
0.587656
0.587663
0.58767
0.587678
0.587685
0.587685
0.587692
0.587699
0.587706
0.587713
0.587713
0.58772
0.587727
0.587734
0.587741
0.587741
0.587748
0.587755
0.587762
0.587769
0.587769
0.587776
0.587783
0.58779
0.587796
0.587796
0.587803
0.58781
0.587817
0.587824
0.587824
0.587831
0.587838
0.587844
0.587851
0.587851
0.587858
0.587865
0.587872
0.587878
0.587878
0.587885
0.587892
0.587898
0.587905
0.587905
0.587912
0.587918
0.587925
0.587931
0.587931
0.587938
0.587944
0.587951
0.587958
0.587958
0.587964
0.587971
0.587977
0.587984
0.587984
0.58799
0.587997
0.588003
0.58801
0.58801
0.588016
0.588022
0.588029
0.588035
0.588035
0.588042
0.588048
0.588054
0.588061
0.588061
0.588067
0.588073
0.588079
0.588086
0.588086
0.588092
0.588098
0.588104
0.588111
0.588111
0.588117
0.588123
0.588129
0.588136
0.588136
0.588142
0.588148
0.588154
0.58816
0.58816
0.588166
0.588172
0.588178
0.588184
0.588184
0.58819
0.588197
0.588203
0.588209
0.588209
0.588215
0.588221
0.588227
0.588233
0.588233
0.588238
0.588244
0.58825
0.588256
0.588256
0.588262
0.588268
0.588274
0.58828
0.58828
0.588286
0.588292
0.588297
0.588303
0.588303
0.588309
0.588315
0.588321
0.588326
0.588326
0.588332
0.588338
0.588344
0.588349
0.588349
0.588355
0.588361
0.588366
0.588372
0.588372
0.588378
0.588384
0.588389
0.588395
0.588395
0.5884
0.588406
0.588412
0.588417
0.588417
0.588423
0.588428
0.588434
0.588439
0.588439
0.588445
0.58845
0.588456
0.588461
0.588461
0.588467
0.588472
0.588478
0.588483
0.588483
0.588489
0.588494
0.5885
0.588505
0.588505
0.58851
0.588516
0.588521
0.588526
0.588526
0.588532
0.588537
0.588542
0.588548
0.588548
0.588553
0.588558
0.588564
0.588569
0.588569
0.588574
0.588579
0.588585
0.58859
0.58859
0.588595
0.5886
0.588605
0.588611
0.588611
0.588616
0.588621
0.588626
0.588631
0.588631
0.588636
0.588641
0.588647
0.588652
0.588652
0.588657
0.588662
0.588667
0.588672
0.588672
0.588677
0.588682
0.588687
0.588692
0.588692
0.588697
0.588702
0.588707
0.588712
0.588712
0.588717
0.588722
0.588727
0.588732
0.588732
0.588737
0.588742
0.588747
0.588751
0.588751
0.588756
0.588761
0.588766
0.588771
0.588771
0.588776
0.588781
0.588785
0.58879
0.58879
0.588795
0.5888
0.588805
0.588809
0.588809
0.588814
0.588819
0.588824
0.588828
0.588828
0.588833
0.588838
0.588843
0.588847
0.588847
0.588852
0.588857
0.588861
0.588866
0.588866
0.58887
0.588875
0.58888
0.588884
0.588884
0.588889
0.588894
0.588898
0.588903
0.588903
0.588907
0.588912
0.588917
0.588921
0.588921
0.588926
0.58893
0.588935
0.588939
0.588939
0.588944
0.588948
0.588953
0.588957
0.588957
0.588962
0.588966
0.58897
0.588975
0.588975
0.588979
0.588984
0.588988
0.588993
0.588993
0.588997
0.589001
0.589006
0.58901
0.58901
0.589015
0.589019
0.589023
0.589028
0.589028
0.589032
0.589036
0.58904
0.589045
0.589045
0.589049
0.589053
0.589058
0.589062
0.589062
0.589066
0.58907
0.589075
0.589079
0.589079
0.589083
0.589087
0.589092
0.589096
0.589096
0.5891
0.589104
0.589108
0.589113
0.589113
0.589117
0.589121
0.589125
0.589129
0.589129
0.589133
0.589137
0.589141
0.589146
0.589146
0.58915
0.589154
0.589158
0.589162
0.589162
0.589166
0.58917
0.589174
0.589178
0.589178
0.589182
0.589186
0.58919
0.589194
0.589194
0.589198
0.589202
0.589206
0.58921
0.58921
0.589214
0.589218
0.589222
0.589226
0.589226
0.58923
0.589234
0.589238
0.589242
0.589242
0.589246
0.58925
0.589254
0.589258
0.589258
0.589261
0.589265
0.589269
0.589273
0.589273
0.589277
0.589281
0.589285
0.589288
0.589288
0.589292
0.589296
0.5893
0.589304
0.589304
0.589308
0.589311
0.589315
0.589319
0.589319
0.589323
0.589326
0.58933
0.589334
0.589334
0.589338
0.589341
0.589345
0.589349
0.589349
0.589353
0.589356
0.58936
0.589364
0.589364
0.589367
0.589371
0.589375
0.589379
0.589379
0.589382
0.589386
0.58939
0.589393
0.589393
0.589397
0.5894
0.589404
0.589408
0.589408
0.589411
0.589415
0.589419
0.589422
0.589422
0.589426
0.589429
0.589433
0.589436
0.589436
0.58944
0.589444
0.589447
0.589451
0.589451
0.589454
0.589458
0.589461
0.589465
0.589465
0.589468
0.589472
0.589475
0.589479
0.589479
0.589482
0.589486
0.589489
0.589493
0.589493
0.589496
0.5895
0.589503
0.589507
0.589507
0.58951
0.589514
0.589517
0.58952
0.58952
0.589524
0.589527
0.589531
0.589534
0.589534
0.589537
0.589541
0.589544
0.589548
0.589548
0.589551
0.589554
0.589558
0.589561
0.589561
0.589564
0.589568
0.589571
0.589575
0.589575
0.589578
0.589581
0.589584
0.589588
0.589588
0.589591
0.589594
0.589598
0.589601
0.589601
0.589604
0.589608
0.589611
0.589614
0.589614
0.589617
0.589621
0.589624
0.589627
0.589627
0.58963
0.589634
0.589637
0.58964
0.58964
0.589643
0.589647
0.58965
0.589653
0.589653
0.589656
0.58966
0.589663
0.589666
0.589666
0.589669
0.589672
0.589675
0.589679
0.589679
0.589682
0.589685
0.589688
0.589691
0.589691
0.589694
0.589698
0.589701
0.589704
0.589704
0.589707
0.58971
0.589713
0.589716
0.589716
0.589719
0.589723
0.589726
0.589729
0.589729
0.589732
0.589735
0.589738
0.589741
0.589741
0.589744
0.589747
0.58975
0.589753
0.589753
0.589756
0.58976
0.589763
0.589766
0.589766
0.589769
0.589772
0.589775
0.589778
0.589778
0.589781
0.589784
0.589787
0.58979
0.58979
0.589793
0.589796
0.589799
0.589802
0.589802
0.589805
0.589808
0.589811
0.589814
0.589814
0.589817
0.58982
0.589823
0.589826
0.589826
0.589829
0.589832
0.589835
0.589837
0.589837
0.58984
0.589843
0.589846
0.589849
0.589849
0.589852
0.589855
0.589858
0.589861
0.589861
0.589864
0.589867
0.58987
0.589873
0.589873
0.589875
0.589878
0.589881
0.589884
0.589884
0.589887
0.58989
0.589893
0.589896
0.589896
0.589898
0.589901
0.589904
0.589907
0.589907
0.58991
0.589913
0.589916
0.589918
0.589918
0.589921
0.589924
0.589927
0.58993
0.58993
0.589933
0.589935
0.589938
0.589941
0.589941
0.589944
0.589947
0.589949
0.589952
0.589952
0.589955
0.589958
0.589961
0.589963
0.589963
0.589966
0.589969
0.589972
0.589975
0.589975
0.589977
0.58998
0.589983
0.589986
0.589986
0.589988
0.589991
0.589994
0.589997
0.589997
0.589999
0.590002
0.590005
0.590008
0.590008
0.59001
0.590013
0.590016
0.590018
0.590018
0.590021
0.590024
0.590027
0.590029
0.590029
0.590032
0.590035
0.590037
0.59004
0.59004
0.590043
0.590046
0.590048
0.590051
0.590051
0.590054
0.590056
0.590059
0.590062
0.590062
0.590064
0.590067
0.59007
0.590072
0.590072
0.590075
0.590078
0.59008
0.590083
0.590083
0.590086
0.590088
0.590091
0.590094
0.590094
0.590096
0.590099
0.590102
0.590104
0.590104
0.590107
0.590109
0.590112
0.590115
0.590115
0.590117
0.59012
0.590123
0.590125
0.590125
0.590128
0.59013
0.590133
0.590136
0.590136
0.590138
0.590141
0.590143
0.590146
0.590146
0.590149
0.590151
0.590154
0.590156
0.590156
0.590159
0.590162
0.590164
0.590167
0.590167
0.590169
0.590172
0.590174
0.590177
0.590177
0.59018
0.590182
0.590185
0.590187
0.590187
0.59019
0.590192
0.590195
0.590197
0.590197
0.5902
0.590203
0.590205
0.590208
0.590208
0.59021
0.590213
0.590215
0.590218
0.590218
0.59022
0.590223
0.590225
0.590228
0.590228
0.59023
0.590233
0.590235
0.590238
0.590238
0.59024
0.590243
0.590246
0.590248
0.590248
0.590251
0.590253
0.590256
0.590258
0.590258
0.590261
0.590263
0.590266
0.590268
0.590268
0.590271
0.590273
0.590276
0.590278
0.590278
0.590281
0.590283
0.590286
0.590288
0.590288
0.59029
0.590293
0.590295
0.590298
0.590298
0.5903
0.590303
0.590305
0.590308
0.590308
0.59031
0.590313
0.590315
0.590318
0.590318
0.59032
0.590323
0.590325
0.590328
0.590328
0.59033
0.590332
0.590335
0.590337
0.590337
0.59034
0.590342
0.590345
0.590347
0.590347
0.59035
0.590352
0.590354
0.590357
0.590357
0.590359
0.590362
0.590364
0.590367
0.590367
0.590369
0.590372
0.590374
0.590376
0.590376
0.590379
0.590381
0.590384
0.590386
0.590386
0.590389
0.590391
0.590393
0.590396
0.590396
0.590398
0.590401
0.590403
0.590406
0.590406
0.590408
0.59041
0.590413
0.590415
0.590415
0.590418
0.59042
0.590422
0.590425
0.590425
0.590427
0.59043
0.590432
0.590434
0.590434
0.590437
0.590439
0.590442
0.590444
0.590444
0.590446
0.590449
0.590451
0.590454
0.590454
0.590456
0.590458
0.590461
0.590463
0.590463
0.590466
0.590468
0.59047
0.590473
0.590473
0.590475
0.590478
0.59048
0.590482
0.590482
0.590485
0.590487
0.590489
0.590492
0.590492
0.590494
0.590497
0.590499
0.590501
0.590501
0.590504
0.590506
0.590508
0.590511
0.590511
0.590513
0.590516
0.590518
0.59052
0.59052
0.590523
0.590525
0.590527
0.59053
0.59053
0.590532
0.590535
0.590537
0.590539
0.590539
0.590542
0.590544
0.590546
0.590549
0.590549
0.590551
0.590554
0.590556
0.590558
0.590558
0.590561
0.590563
0.590565
0.590568
0.590568
0.59057
0.590572
0.590575
0.590577
0.590577
0.59058
0.590582
0.590584
0.590587
0.590587
0.590589
0.590591
0.590594
0.590596
0.590596
0.590598
0.590601
0.590603
0.590605
0.590605
0.590608
0.59061
0.590612
0.590615
0.590615
0.590617
0.59062
0.590622
0.590624
0.590624
0.590627
0.590629
0.590631
0.590634
0.590634
0.590636
0.590638
0.590641
0.590643
0.590643
0.590645
0.590648
0.59065
0.590652
0.590652
0.590655
0.590657
0.590659
0.590662
0.590662
0.590664
0.590667
0.590669
0.590671
0.590671
0.590674
0.590676
0.590678
0.590681
0.590681
0.590683
0.590685
0.590688
0.59069
0.59069
0.590692
0.590695
0.590697
0.590699
0.590699
0.590702
0.590704
0.590706
0.590709
0.590709
0.590711
0.590713
0.590716
0.590718
0.590718
0.590721
0.590723
0.590725
0.590728
0.590728
0.59073
0.590732
0.590735
0.590737
0.590737
0.590739
0.590742
0.590744
0.590746
0.590746
0.590749
0.590751
0.590753
0.590756
0.590756
0.590758
0.59076
0.590763
0.590765
0.590765
0.590767
0.59077
0.590772
0.590774
0.590774
0.590777
0.590779
0.590782
0.590784
0.590784
0.590786
0.590789
0.590791
0.590793
0.590793
0.590796
0.590798
0.5908
0.590803
0.590803
0.590805
0.590807
0.59081
0.590812
0.590812
0.590814
0.590817
0.590819
0.590822
0.590822
0.590824
0.590826
0.590829
0.590831
0.590831
0.590833
0.590836
0.590838
0.59084
0.59084
0.590843
0.590845
0.590847
0.59085
0.59085
0.590852
0.590855
0.590857
0.590859
0.590859
0.590862
0.590864
0.590866
0.590869
0.590869
0.590871
0.590873
0.590876
0.590878
0.590878
0.59088
0.590883
0.590885
0.590888
0.590888
0.59089
0.590892
0.590895
0.590897
0.590897
0.590899
0.590902
0.590904
0.590906
0.590906
0.590909
0.590911
0.590914
0.590916
0.590916
0.590918
0.590921
0.590923
0.590925
0.590925
0.590928
0.59093
0.590933
0.590935
0.590935
0.590937
0.59094
0.590942
0.590944
0.590944
0.590947
0.590949
0.590952
0.590954
0.590954
0.590956
0.590959
0.590961
0.590964
0.590964
0.590966
0.590968
0.590971
0.590973
0.590973
0.590975
0.590978
0.59098
0.590983
0.590983
0.590985
0.590987
0.59099
0.590992
0.590992
0.590995
0.590997
0.590999
0.591002
0.591002
0.591004
0.591007
0.591009
0.591011
0.591011
0.591014
0.591016
0.591019
0.591021
0.591021
0.591023
0.591026
0.591028
0.591031
0.591031
0.591033
0.591035
0.591038
0.59104
0.59104
0.591043
0.591045
0.591047
0.59105
0.59105
0.591052
0.591055
0.591057
0.59106
0.59106
0.591062
0.591064
0.591067
0.591069
0.591069
0.591072
0.591074
0.591076
0.591079
0.591079
0.591081
0.591084
0.591086
0.591089
0.591089
0.591091
0.591093