<?xml version="1.0"?>
<VTKFile type="UnstructuredGrid" version="0.1" byte_order="LittleEndian">
<UnstructuredGrid>
<Piece NumberOfPoints="5000" NumberOfCells="4000">
<PointData Scalars="Reaction 0">
<DataArray type="Float32" Name="Reaction 0" format="ascii">
0.142968
0.142968
0.142968
0.142968
0.142968
0.142968
0.142968
0.142968
0.142968
0.142969
0.142969
0.142969
0.142969
0.142969
0.14297
0.14297
0.14297
0.142971
0.142971
0.142971
0.142971
0.142972
0.142973
0.142973
0.142974
0.142974
0.142974
0.142975
0.142976
0.142976
0.142976
0.142977
0.142978
0.142979
0.14298
0.14298
0.14298
0.142981
0.142982
0.142983
0.142983
0.142984
0.142985
0.142986
0.142987
0.142987
0.142988
0.14299
0.142991
0.142992
0.142992
0.142993
0.142994
0.142996
0.142997
0.142997
0.142998
0.143
0.143001
0.143003
0.143003
0.143004
0.143006
0.143007
0.143009
0.143009
0.14301
0.143012
0.143014
0.143015
0.143015
0.143017
0.143019
0.14302
0.143022
0.143022
0.143024
0.143026
0.143028
0.14303
0.14303
0.143032
0.143034
0.143036
0.143038
0.143038
0.14304
0.143042
0.143044
0.143046
0.143046
0.143049
0.143051
0.143053
0.143055
0.143055
0.143058
0.14306
0.143062
0.143065
0.143065
0.143067
0.14307
0.143072
0.143075
0.143075
0.143077
0.14308
0.143083
0.143085
0.143085
0.143088
0.143091
0.143093
0.143096
0.143096
0.143099
0.143102
0.143105
0.143108
0.143108
0.143111
0.143114
0.143117
0.14312
0.14312
0.143123
0.143126
0.143129
0.143132
0.143132
0.143135
0.143138
0.143142
0.143145
0.143145
0.143148
0.143151
0.143155
0.143158
0.143158
0.143162
0.143165
0.143169
0.143172
0.143172
0.143176
0.143179
0.143183
0.143186
0.143186
0.14319
0.143194
0.143198
0.143201
0.143201
0.143205
0.143209
0.143213
0.143217
0.143217
0.14322
0.143224
0.143228
0.143232
0.143232
0.143236
0.14324
0.143245
0.143249
0.143249
0.143253
0.143257
0.143261
0.143265
0.143265
0.14327
0.143274
0.143278
0.143283
0.143283
0.143287
0.143292
0.143296
0.1433
0.1433
0.143305
0.14331
0.143314
0.143319
0.143319
0.143323
0.143328
0.143333
0.143337
0.143337
0.143342
0.143347
0.143352
0.143357
0.143357
0.143362
0.143366
0.143371
0.143376
0.143376
0.143381
0.143386
0.143391
0.143397
0.143397
0.143402
0.143407
0.143412
0.143417
0.143417
0.143422
0.143428
0.143433
0.143438
0.143438
0.143444
0.143449
0.143455
0.14346
0.14346
0.143466
0.143471
0.143477
0.143482
0.143482
0.143488
0.143493
0.143499
0.143505
0.143505
0.143511
0.143516
0.143522
0.143528
0.143528
0.143534
0.14354
0.143546
0.143552
0.143552
0.143558
0.143564
0.14357
0.143576
0.143576
0.143582
0.143588
0.143594
0.1436
0.1436
0.143606
0.143613
0.143619
0.143625
0.143625
0.143632
0.143638
0.143644
0.143651
0.143651
0.143657
0.143664
0.14367
0.143677
0.143677
0.143683
0.14369
0.143697
0.143703
0.143703
0.14371
0.143717
0.143724
0.14373
0.14373
0.143737
0.143744
0.143751
0.143758
0.143758
0.143765
0.143772
0.143779
0.143786
0.143786
0.143793
0.1438
0.143807
0.143814
0.143814
0.143822
0.143829
0.143836
0.143843
0.143843
0.143851
0.143858
0.143865
0.143873
0.143873
0.14388
0.143888
0.143895
0.143903
0.143903
0.14391
0.143918
0.143926
0.143933
0.143933
0.143941
0.143949
0.143956
0.143964
0.143964
0.143972
0.14398
0.143988
0.143996
0.143996
0.144004
0.144012
0.14402
0.144028
0.144028
0.144036
0.144044
0.144052
0.14406
0.14406
0.144068
0.144076
0.144085
0.144093
0.144093
0.144101
0.144109
0.144118
0.144126
0.144126
0.144135
0.144143
0.144152
0.14416
0.14416
0.144169
0.144177
0.144186
0.144194
0.144194
0.144203
0.144212
0.14422
0.144229
0.144229
0.144238
0.144247
0.144256
0.144265
0.144265
0.144273
0.144282
0.144291
0.1443
0.1443
0.144309
0.144318
0.144328
0.144337
0.144337
0.144346
0.144355
0.144364
0.144374
0.144374
0.144383
0.144392
0.144401
0.144411
0.144411
0.14442
0.14443
0.144439
0.144449
0.144449
0.144458
0.144468
0.144477
0.144487
0.144487
0.144497
0.144506
0.144516
0.144526
0.144526
0.144535
0.144545
0.144555
0.144565
0.144565
0.144575
0.144585
0.144595
0.144605
0.144605
0.144615
0.144625
0.144635
0.144645
0.144645
0.144655
0.144665
0.144675
0.144686
0.144686
0.144696
0.144706
0.144716
0.144727
0.144727
0.144737
0.144748
0.144758
0.144769
0.144769
0.144779
0.14479
0.1448
0.144811
0.144811
0.144821
0.144832
0.144843
0.144853
0.144853
0.144864
0.144875
0.144886
0.144897
0.144897
0.144907
0.144918
0.144929
0.14494
0.14494
0.144951
0.144962
0.144973
0.144984
0.144984
0.144996
0.145007
0.145018
0.145029
0.145029
0.14504
0.145052
0.145063
0.145074
0.145074
0.145086
0.145097
0.145108
0.14512
0.14512
0.145131
0.145143
0.145154
0.145166
0.145166
0.145178
0.145189
0.145201
0.145213
0.145213
0.145224
0.145236
0.145248
0.14526
0.14526
0.145272
0.145283
0.145295
0.145307
0.145307
0.145319
0.145331
0.145343
0.145355
0.145355
0.145368
0.14538
0.145392
0.145404
0.145404
0.145416
0.145429
0.145441
0.145453
0.145453
0.145465
0.145478
0.14549
0.145503
0.145503
0.145515
0.145528
0.14554
0.145553
0.145553
0.145565
0.145578
0.145591
0.145603
0.145603
0.145616
0.145629
0.145642
0.145654
0.145654
0.145667
0.14568
0.145693
0.145706
0.145706
0.145719
0.145732
0.145745
0.145758
0.145758
0.145771
0.145784
0.145797
0.145811
0.145811
0.145824
0.145837
0.14585
0.145864
0.145864
0.145877
0.14589
0.145904
0.145917
0.145917
0.145931
0.145944
0.145958
0.145971
0.145971
0.145985
0.145998
0.146012
0.146026
0.146026
0.146039
0.146053
0.146067
0.146081
0.146081
0.146095
0.146108
0.146122
0.146136
0.146136
0.14615
0.146164
0.146178
0.146192
0.146192
0.146206
0.14622
0.146235
0.146249
0.146249
0.146263
0.146277
0.146291
0.146306
0.146306
0.14632
0.146334
0.146349
0.146363
0.146363
0.146378
0.146392
0.146407
0.146421
0.146421
0.146436
0.14645
0.146465
0.14648
0.14648
0.146494
0.146509
0.146524
0.146539
0.146539
0.146553
0.146568
0.146583
0.146598
0.146598
0.146613
0.146628
0.146643
0.146658
0.146658
0.146673
0.146688
0.146703
0.146719
0.146719
0.146734
0.146749
0.146764
0.146779
0.146779
0.146795
0.14681
0.146826
0.146841
0.146841
0.146856
0.146872
0.146887
0.146903
0.146903
0.146918
0.146934
0.14695
0.146965
0.146965
0.146981
0.146997
0.147012
0.147028
0.147028
0.147044
0.14706
0.147076
0.147092
0.147092
0.147108
0.147124
0.14714
0.147156
0.147156
0.147172
0.147188
0.147204
0.14722
0.14722
0.147236
0.147253
0.147269
0.147285
0.147285
0.147301
0.147318
0.147334
0.14735
0.14735
0.147367
0.147383
0.1474
0.147416
0.147416
0.147433
0.14745
0.147466
0.147483
0.147483
0.1475
0.147516
0.147533
0.14755
0.14755
0.147567
0.147583
0.1476
0.147617
0.147617
0.147634
0.147651
0.147668
0.147685
0.147685
0.147702
0.147719
0.147736
0.147754
0.147754
0.147771
0.147788
0.147805
0.147822
0.147822
0.14784
0.147857
0.147874
0.147892
0.147892
0.147909
0.147927
0.147944
0.147962
0.147962
0.147979
0.147997
0.148015
0.148032
0.148032
0.14805
0.148068
0.148085
0.148103
0.148103
0.148121
0.148139
0.148157
0.148175
0.148175
0.148193
0.148211
0.148229
0.148247
0.148247
0.148265
0.148283
0.148301
0.148319
0.148319
0.148337
0.148355
0.148374
0.148392
0.148392
0.14841
0.148429
0.148447
0.148465
0.148465
0.148484
0.148502
0.148521
0.148539
0.148539
0.148558
0.148576
0.148595
0.148614
0.148614
0.148632
0.148651
0.14867
0.148689
0.148689
0.148707
0.148726
0.148745
0.148764
0.148764
0.148783
0.148802
0.148821
0.14884
0.14884
0.148859
0.148878
0.148897
0.148916
0.148916
0.148936
0.148955
0.148974
0.148993
0.148993
0.149013
0.149032
0.149051
0.149071
0.149071
0.14909
0.14911
0.149129
0.149149
0.149149
0.149168
0.149188
0.149208
0.149227
0.149227
0.149247
0.149267
0.149286
0.149306
0.149306
0.149326
0.149346
0.149366
0.149386
0.149386
0.149406
0.149425
0.149445
0.149466
0.149466
0.149486
0.149506
0.149526
0.149546
0.149546
0.149566
0.149586
0.149607
0.149627
0.149627
0.149647
0.149668
0.149688
0.149708
0.149708
0.149729
0.149749
0.14977
0.14979
0.14979
0.149811
0.149832
0.149852
0.149873
0.149873
0.149894
0.149914
0.149935
0.149956
0.149956
0.149977
0.149998
0.150018
0.150039
0.150039
0.15006
0.150081
0.150102
0.150123
0.150123
0.150144
0.150166
0.150187
0.150208
0.150208
0.150229
0.15025
0.150272
0.150293
0.150293
0.150314
0.150336
0.150357
0.150378
0.150378
0.1504
0.150421
0.150443
0.150464
0.150464
0.150486
0.150508
0.150529
0.150551
0.150551
0.150573
0.150594
0.150616
0.150638
0.150638
0.15066
0.150682
0.150704
0.150725
0.150725
0.150747
0.150769
0.150791
0.150813
0.150813
0.150836
0.150858
0.15088
0.150902
0.150902
0.150924
0.150947
0.150969
0.150991
0.150991
0.151013
0.151036
0.151058
0.151081
0.151081
0.151103
0.151126
0.151148
0.151171
0.151171
0.151193
0.151216
0.151239
0.151261
0.151261
0.151284
0.151307
0.15133
0.151352
0.151352
0.151375
0.151398
0.151421
0.151444
0.151444
0.151467
0.15149
0.151513
0.151536
0.151536
0.151559
0.151582
0.151606
0.151629
0.151629
0.151652
0.151675
0.151699
0.151722
0.151722
0.151745
0.151769
0.151792
0.151815
0.151815
0.151839
0.151862
0.151886
0.15191
0.15191
0.151933
0.151957
0.151981
0.152004
0.152004
0.152028
0.152052
0.152076
0.152099
0.152099
0.152123
0.152147
0.152171
0.152195
0.152195
0.152219
0.152243
0.152267
0.152291
0.152291
0.152315
0.15234
0.152364
0.152388
0.152388
0.152412
0.152437
0.152461
0.152485
0.152485
0.15251
0.152534
0.152558
0.152583
0.152583
0.152607
0.152632
0.152657
0.152681
0.152681
0.152706
0.15273
0.152755
0.15278
0.15278
0.152805
0.152829
0.152854
0.152879
0.152879
0.152904
0.152929
0.152954
0.152979
0.152979
0.153004
0.153029
0.153054
0.153079
0.153079
0.153104
0.153129
0.153155
0.15318
0.15318
0.153205
0.153231
0.153256
0.153281
0.153281
0.153307
0.153332
0.153358
0.153383
0.153383
0.153409
0.153434
0.15346
0.153485
0.153485
0.153511
0.153537
0.153562
0.153588
0.153588
0.153614
0.15364
0.153666
0.153692
0.153692
0.153718
0.153743
0.153769
0.153795
0.153795
0.153822
0.153848
0.153874
0.1539
0.1539
0.153926
0.153952
0.153978
0.154005
0.154005
0.154031
0.154057
0.154084
0.15411
0.15411
0.154137
0.154163
0.15419
0.154216
0.154216
0.154243
0.154269
0.154296
0.154323
0.154323
0.154349
0.154376
0.154403
0.15443
0.15443
0.154456
0.154483
0.15451
0.154537
0.154537
0.154564
0.154591
0.154618
0.154645
0.154645
0.154672
0.154699
0.154726
0.154754
0.154754
0.154781
0.154808
0.154835
0.154863
0.154863
0.15489
0.154917
0.154945
0.154972
0.154972
0.155
0.155027
0.155055
0.155082
0.155082
0.15511
0.155137
0.155165
0.155193
0.155193
0.15522
0.155248
0.155276
0.155304
0.155304
0.155332
0.15536
0.155388
0.155415
0.155415
0.155443
0.155471
0.1555
0.155528
0.155528
0.155556
0.155584
0.155612
0.15564
0.15564
0.155669
0.155697
0.155725
0.155753
0.155753
0.155782
0.15581
0.155839
0.155867
0.155867
0.155896
0.155924
0.155953
0.155981
0.155981
0.15601
0.156039
0.156067
0.156096
0.156096
0.156125
0.156154
0.156182
0.156211
0.156211
0.15624
0.156269
0.156298
0.156327
0.156327
0.156356
0.156385
0.156414
0.156443
0.156443
0.156473
0.156502
0.156531
0.15656
0.15656
0.15659
0.156619
0.156648
0.156678
0.156678
0.156707
0.156736
0.156766
0.156795
0.156795
0.156825
0.156855
0.156884
0.156914
0.156914
0.156943
0.156973
0.157003
0.157033
0.157033
0.157063
0.157092
0.157122
0.157152
0.157152
0.157182
0.157212
0.157242
0.157272
0.157272
0.157302
0.157332
0.157362
0.157393
0.157393
0.157423
0.157453
0.157483
0.157514
0.157514
0.157544
0.157574
0.157605
0.157635
0.157635
0.157666
0.157696
0.157727
0.157757
0.157757
0.157788
0.157818
0.157849
0.15788
0.15788
0.15791
0.157941
0.157972
0.158003
0.158003
0.158034
0.158064
0.158095
0.158126
0.158126
0.158157
0.158188
0.158219
0.158251
0.158251
0.158282
0.158313
0.158344
0.158375
0.158375
0.158406
0.158438
0.158469
0.1585
0.1585
0.158532
0.158563
0.158595
0.158626
0.158626
0.158658
0.158689
0.158721
0.158752
0.158752
0.158784
0.158816
0.158847
0.158879
0.158879
0.158911
0.158943
0.158975
0.159006
0.159006
0.159038
0.15907
0.159102
0.159134
0.159134
0.159166
0.159198
0.15923
0.159263
0.159263
0.159295
0.159327
0.159359
0.159391
0.159391
0.159424
0.159456
0.159488
0.159521
0.159521
0.159553
0.159586
0.159618
0.159651
0.159651
0.159683
0.159716
0.159749
0.159781
0.159781
0.159814
0.159847
0.159879
0.159912
0.159912
0.159945
0.159978
0.160011
0.160044
0.160044
0.160077
0.16011
0.160143
0.160176
0.160176
0.160209
0.160242
0.160275
0.160308
0.160308
0.160342
0.160375
0.160408
0.160441
0.160441
0.160475
0.160508
0.160542
0.160575
0.160575
0.160609
0.160642
0.160676
0.160709
0.160709
0.160743
0.160777
0.16081
0.160844
0.160844
0.160878
0.160912
0.160945
0.160979
0.160979
0.161013
0.161047
0.161081
0.161115
0.161115
0.161149
0.161183
0.161217
0.161251
0.161251
0.161285
0.16132
0.161354
0.161388
0.161388
0.161422
0.161457
0.161491
0.161525
0.161525
0.16156
0.161594
0.161629
0.161663
0.161663
0.161698
0.161733
0.161767
0.161802
0.161802
0.161836
0.161871
0.161906
0.161941
0.161941
0.161976
0.16201
0.162045
0.16208
0.16208
0.162115
0.16215
0.162185
0.16222
0.16222
0.162255
0.16229
0.162326
0.162361
0.162361
0.162396
0.162431
0.162467
0.162502
0.162502
0.162537
0.162573
0.162608
0.162644
0.162644
0.162679
0.162715
0.16275
0.162786
0.162786
0.162821
0.162857
0.162893
0.162928
0.162928
0.162964
0.163
0.163036
0.163072
0.163072
0.163108
0.163143
0.163179
0.163215
0.163215
0.163251
0.163288
0.163324
0.16336
0.16336
0.163396
0.163432
0.163468
0.163505
0.163505
0.163541
0.163577
0.163614
0.16365
0.16365
0.163686
0.163723
0.163759
0.163796
0.163796
0.163832
0.163869
0.163906
0.163942
0.163942
0.163979
0.164016
0.164053
0.164089
0.164089
0.164126
0.164163
0.1642
0.164237
0.164237
0.164274
0.164311
0.164348
0.164385
0.164385
0.164422
0.164459
0.164496
0.164534
0.164534
0.164571
0.164608
0.164645
0.164683
0.164683
0.16472
0.164757
0.164795
0.164832
0.164832
0.16487
0.164907
0.164945
0.164983
0.164983
0.16502
0.165058
0.165096
0.165133
0.165133
0.165171
0.165209
0.165247
0.165285
0.165285
0.165323
0.165361
0.165399
0.165437
0.165437
0.165475
0.165513
0.165551
0.165589
0.165589
0.165627
0.165665
0.165704
0.165742
0.165742
0.16578
0.165819
0.165857
0.165895
0.165895
0.165934
0.165972
0.166011
0.166049
0.166049
0.166088
0.166127
0.166165
0.166204
0.166204
0.166243
0.166281
0.16632
0.166359
0.166359
0.166398
0.166437
0.166476
0.166515
0.166515
0.166554
0.166593
0.166632
0.166671
0.166671
0.16671
0.166749
0.166788
0.166828
0.166828
0.166867
0.166906
0.166945
0.166985
0.166985
0.167024
0.167064
0.167103
0.167143
0.167143
0.167182
0.167222
0.167261
0.167301
0.167301
0.167341
0.16738
0.16742
0.16746
0.16746
0.1675
0.16754
0.167579
0.167619
0.167619
0.167659
0.167699
0.167739
0.167779
0.167779
0.167819
0.16786
0.1679
0.16794
0.16794
0.16798
0.16802
0.168061
0.168101
0.168101
0.168141
0.168182
0.168222
0.168263
0.168263
0.168303
0.168344
0.168384
0.168425
0.168425
0.168466
0.168506
0.168547
0.168588
0.168588
0.168628
0.168669
0.16871
0.168751
0.168751
0.168792
0.168833
0.168874
0.168915
0.168915
0.168956
0.168997
0.169038
0.169079
0.169079
0.16912
0.169162
0.169203
0.169244
0.169244
0.169285
0.169327
0.169368
0.16941
0.16941
0.169451
0.169492
0.169534
0.169576
0.169576
0.169617
0.169659
0.1697
0.169742
0.169742
0.169784
0.169826
0.169867
0.169909
0.169909
0.169951
0.169993
0.170035
0.170077
0.170077
0.170119
0.170161
0.170203
0.170245
0.170245
0.170287
0.170329
0.170372
0.170414
0.170414
0.170456
0.170499
0.170541
0.170583
0.170583
0.170626
0.170668
0.170711
0.170753
0.170753
0.170796
0.170838
0.170881
0.170924
0.170924
0.170966
0.171009
0.171052
0.171095
0.171095
0.171137
0.17118
0.171223
0.171266
0.171266
0.171309
0.171352
0.171395
0.171438
0.171438
0.171481
0.171524
0.171568
0.171611
0.171611
0.171654
0.171697
0.171741
0.171784
0.171784
0.171827
0.171871
0.171914
0.171958
0.171958
0.172001
0.172045
0.172088
0.172132
0.172132
0.172176
0.172219
0.172263
0.172307
0.172307
0.172351
0.172395
0.172438
0.172482
0.172482
0.172526
0.17257
0.172614
0.172658
0.172658
0.172702
0.172747
0.172791
0.172835
0.172835
0.172879
0.172923
0.172968
0.173012
0.173012
0.173056
0.173101
0.173145
0.17319
0.17319
0.173234
0.173279
0.173323
0.173368
0.173368
0.173412
0.173457
0.173502
0.173547
0.173547
0.173591
0.173636
0.173681
0.173726
0.173726
0.173771
0.173816
0.173861
0.173906
0.173906
0.173951
0.173996
0.174041
0.174086
0.174086
0.174131
0.174177
0.174222
0.174267
0.174267
0.174312
0.174358
0.174403
0.174449
0.174449
0.174494
0.17454
0.174585
0.174631
0.174631
0.174676
0.174722
0.174768
0.174813
0.174813
0.174859
0.174905
0.174951
0.174997
0.174997
0.175043
0.175088
0.175134
0.17518
0.17518
0.175226
0.175273
0.175319
0.175365
0.175365
0.175411
0.175457
0.175503
0.17555
0.17555
0.175596
0.175642
0.175689
0.175735
0.175735
0.175782
0.175828
0.175875
0.175921
0.175921
0.175968
0.176014
0.176061
0.176108
0.176108
0.176154
0.176201
0.176248
0.176295
0.176295
0.176342
0.176389
0.176436
0.176483
0.176483
0.17653
0.176577
0.176624
0.176671
0.176671
0.176718
0.176765
0.176812
0.17686
0.17686
0.176907
0.176954
0.177002
0.177049
0.177049
0.177097
0.177144
0.177192
0.177239
0.177239
0.177287
0.177334
0.177382
0.17743
0.17743
0.177477
0.177525
0.177573
0.177621
0.177621
0.177669
0.177716
0.177764
0.177812
0.177812
0.17786
0.177908
0.177956
0.178005
0.178005
0.178053
0.178101
0.178149
0.178197
0.178197
0.178246
0.178294
0.178342
0.178391
0.178391
0.178439
0.178488
0.178536
0.178585
0.178585
0.178633
0.178682
0.17873
0.178779
0.178779
0.178828
0.178877
0.178925
0.178974
0.178974
0.179023
0.179072
0.179121
0.17917
0.17917
0.179219
0.179268
0.179317
0.179366
0.179366
0.179415
0.179464
0.179514
0.179563
0.179563
0.179612
0.179661
0.179711
0.17976
0.17976
0.17981
0.179859
0.179908
0.179958
0.179958
0.180008
0.180057
0.180107
0.180156
0.180156
0.180206
0.180256
0.180306
0.180356
0.180356
0.180405
0.180455
0.180505
0.180555
0.180555
0.180605
0.180655
0.180705
0.180755
0.180755
0.180805
0.180856
0.180906
0.180956
0.180956
0.181006
0.181057
0.181107
0.181157
0.181157
0.181208
0.181258
0.181309
0.181359
0.181359
0.18141
0.18146
0.181511
0.181562
0.181562
0.181612
0.181663
0.181714
0.181765
0.181765
0.181816
0.181866
0.181917
0.181968
0.181968
0.182019
0.18207
0.182121
0.182173
0.182173
0.182224
0.182275
0.182326
0.182377
0.182377
0.182429
0.18248
0.182531
0.182583
0.182583
0.182634
0.182685
0.182737
0.182788
0.182788
0.18284
0.182892
0.182943
0.182995
0.182995
0.183047
0.183098
0.18315
0.183202
0.183202
0.183254
0.183306
0.183358
0.18341
0.18341
0.183462
0.183514
0.183566
0.183618
0.183618
0.18367
0.183722
0.183774
0.183827
0.183827
0.183879
0.183931
0.183984
0.184036
0.184036
0.184088
0.184141
0.184193
0.184246
0.184246
0.184298
0.184351
0.184404
0.184456
0.184456
0.184509
0.184562
0.184615
0.184667
0.184667
0.18472
0.184773
0.184826
0.184879
0.184879
0.184932
0.184985
0.185038
0.185091
0.185091
0.185144
0.185198
0.185251
0.185304
0.185304
0.185357
0.185411
0.185464
0.185517
0.185517
0.185571
0.185624
0.185678
0.185731
0.185731
0.185785
0.185839
0.185892
0.185946
0.185946
0.186
0.186053
0.186107
0.186161
0.186161
0.186215
0.186269
0.186323
0.186377
0.186377
0.186431
0.186485
0.186539
0.186593
0.186593
0.186647
0.186701
0.186756
0.18681
0.18681
0.186864
0.186919
0.186973
0.187027
0.187027
0.187082
0.187136
0.187191
0.187245
0.187245
0.1873
0.187355
0.187409
0.187464
0.187464
0.187519
0.187573
0.187628
0.187683
0.187683
0.187738
0.187793
0.187848
0.187903
0.187903
0.187958
0.188013
0.188068
0.188123
0.188123
0.188178
0.188234
0.188289
0.188344
0.188344
0.188399
0.188455
0.18851
0.188566
0.188566
0.188621
0.188677
0.188732
0.188788
0.188788
0.188843
0.188899
0.188955
0.18901
0.18901
0.189066
0.189122
0.189178
0.189234
0.189234
0.18929
0.189346
0.189402
0.189458
0.189458
0.189514
0.18957
0.189626
0.189682
0.189682
0.189738
0.189794
0.189851
0.189907
0.189907
0.189963
0.19002
0.190076
0.190133
0.190133
0.190189
0.190246
0.190302
0.190359
0.190359
0.190415
0.190472
0.190529
0.190586
0.190586
0.190642
0.190699
0.190756
0.190813
0.190813
0.19087
0.190927
0.190984
0.191041
0.191041
0.191098
0.191155
0.191212
0.191269
0.191269
0.191327
0.191384
0.191441
0.191498
0.191498
0.191556
0.191613
0.191671
0.191728
0.191728
0.191786
0.191843
0.191901
0.191958
0.191958
0.192016
0.192074
0.192132
0.192189
0.192189
0.192247
0.192305
0.192363
0.192421
0.192421
0.192479
0.192537
0.192595
0.192653
0.192653
0.192711
0.192769
0.192827
0.192886
0.192886
0.192944
0.193002
0.19306
0.193119
0.193119
0.193177
0.193236
0.193294
0.193353
0.193353
0.193411
0.19347
0.193528
0.193587
0.193587
0.193646
0.193704
0.193763
0.193822
0.193822
0.193881
0.19394
0.193999
0.194058
0.194058
0.194117
0.194176
0.194235
0.194294
0.194294
0.194353
0.194412
0.194471
0.194531
0.194531
0.19459
0.194649
0.194709
0.194768
0.194768
0.194827
0.194887
0.194946
0.195006
0.195006
0.195066
0.195125
0.195185
0.195244
0.195244
0.195304
0.195364
0.195424
0.195484
0.195484
0.195544
0.195603
0.195663
0.195723
0.195723
0.195783
0.195843
0.195904
0.195964
0.195964
0.196024
0.196084
0.196144
0.196205
0.196205
0.196265
0.196325
0.196386
0.196446
0.196446
0.196507
0.196567
0.196628
0.196688
0.196688
0.196749
0.19681
0.19687
0.196931
0.196931
0.196992
0.197053
0.197113
0.197174
0.197174
0.197235
0.197296
0.197357
0.197418
0.197418
0.197479
0.19754
0.197602
0.197663
0.197663
0.197724
0.197785
0.197846
0.197908
0.197908
0.197969
0.198031
0.198092
0.198153
0.198153
0.198215
0.198277
0.198338
0.1984
0.1984
0.198461
0.198523
0.198585
0.198647
0.198647
0.198708
0.19877
0.198832
0.198894
0.198894
0.198956
0.199018
0.19908
0.199142
0.199142
0.199204
0.199267
0.199329
0.199391
0.199391
0.199453
0.199515
0.199578
0.19964
0.19964
0.199703
0.199765
0.199828
0.19989
0.19989
0.199953
0.200015
0.200078
0.200141
0.200141
0.200203
0.200266
0.200329
0.200392
0.200392
0.200454
0.200517
0.20058
0.200643
0.200643
0.200706
0.200769
0.200832
0.200896
0.200896
0.200959
0.201022
0.201085
0.201148
0.201148
0.201212
0.201275
0.201339
0.201402
0.201402
0.201465
0.201529
0.201592
0.201656
0.201656
0.20172
0.201783
0.201847
0.201911
0.201911
0.201974
0.202038
0.202102
0.202166
0.202166
0.20223
0.202294
0.202358
0.202422
0.202422
0.202486
0.20255
0.202614
0.202678
0.202678
0.202743
0.202807
0.202871
0.202935
0.202935
0.203
0.203064
0.203129
0.203193
0.203193
0.203258
0.203322
0.203387
0.203451
0.203451
0.203516
0.203581
0.203646
0.20371
0.20371
0.203775
0.20384
0.203905
0.20397
0.20397
0.204035
0.2041
0.204165
0.20423
0.20423
0.204295
0.20436
0.204425
0.204491
0.204491
0.204556
0.204621
0.204687
0.204752
0.204752
0.204817
0.204883
0.204948
0.205014
0.205014
0.205079
0.205145
0.205211
0.205276
0.205276
0.205342
0.205408
0.205474
0.20554
0.20554
0.205605
0.205671
0.205737
0.205803
0.205803
0.205869
0.205935
0.206001
0.206068
0.206068
0.206134
0.2062
0.206266
0.206333
0.206333
0.206399
0.206465
0.206532
0.206598
0.206598
0.206665
0.206731
0.206798
0.206864
0.206864
0.206931
0.206998
0.207064
0.207131
0.207131
0.207198
0.207265
0.207332
0.207398
0.207398
0.207465
0.207532
0.207599
0.207666
0.207666
0.207734
0.207801
0.207868
0.207935
0.207935
0.208002
0.20807
0.208137
0.208204
0.208204
0.208272
0.208339
0.208407
0.208474
0.208474
0.208542
0.208609
0.208677
0.208744
0.208744
0.208812
0.20888
0.208948
0.209016
0.209016
0.209083
0.209151
0.209219
0.209287
0.209287
0.209355
0.209423
0.209491
0.209559
0.209559
0.209628
0.209696
0.209764
0.209832
0.209832
0.209901
0.209969
0.210037
0.210106
0.210106
0.210174
0.210243
0.210311
0.21038
0.21038
0.210448
0.210517
0.210586
0.210655
0.210655
0.210723
0.210792
0.210861
0.21093
0.21093
0.210999
0.211068
0.211137
0.211206
0.211206
0.211275
0.211344
0.211413
0.211482
0.211482
0.211552
0.211621
0.21169
0.211759
0.211759
0.211829
0.211898
0.211968
0.212037
0.212037
0.212107
0.212176
0.212246
0.212316
0.212316
0.212385
0.212455
0.212525
0.212595
0.212595
0.212664
0.212734
0.212804
0.212874
0.212874
0.212944
0.213014
0.213084
0.213154
0.213154
0.213225
0.213295
0.213365
0.213435
0.213435
0.213506
0.213576
0.213646
0.213717
0.213717
0.213787
0.213858
0.213928
0.213999
0.213999
0.214069
0.21414
0.214211
0.214281
0.214281
0.214352
0.214423
0.214494
0.214565
0.214565
0.214636
0.214707
0.214778
0.214849
0.214849
0.21492
0.214991
0.215062
0.215133
0.215133
0.215204
0.215276
0.215347
0.215418
0.215418
0.21549
0.215561
0.215633
0.215704
0.215704
0.215776
0.215847
0.215919
0.21599
0.21599
0.216062
0.216134
0.216206
0.216277
0.216277
0.216349
0.216421
0.216493
0.216565
0.216565
0.216637
0.216709
0.216781
0.216853
0.216853
0.216925
0.216998
0.21707
0.217142
0.217142
0.217214
0.217287
0.217359
0.217432
0.217432
0.217504
0.217577
0.217649
0.217722
0.217722
0.217794
0.217867
0.21794
0.218012
0.218012
0.218085
0.218158
0.218231
0.218304
0.218304
0.218377
0.21845
0.218523
0.218596
0.218596
0.218669
0.218742
0.218815
0.218888
0.218888
0.218961
0.219035
0.219108
0.219181
0.219181
0.219255
0.219328
0.219402
0.219475
0.219475
0.219549
0.219622
0.219696
0.21977
0.21977
0.219843
0.219917
0.219991
0.220065
0.220065
0.220138
0.220212
0.220286
0.22036
0.22036
0.220434
0.220508
0.220582
0.220657
0.220657
0.220731
0.220805
0.220879
0.220953
0.220953
0.221028
0.221102
0.221177
0.221251
0.221251
0.221325
0.2214
0.221475
0.221549
0.221549
0.221624
0.221698
0.221773
0.221848
0.221848
0.221923
0.221998
0.222072
0.222147
0.222147
0.222222
0.222297
0.222372
0.222447
0.222447
0.222522
0.222598
0.222673
0.222748
0.222748
0.222823
0.222899
0.222974
0.223049
0.223049
0.223125
0.2232
0.223276
0.223351
0.223351
0.223427
0.223502
0.223578
0.223654
0.223654
0.223729
0.223805
0.223881
0.223957
0.223957
0.224033
0.224109
0.224185
0.224261
0.224261
0.224337
0.224413
0.224489
0.224565
0.224565
0.224641
0.224717
0.224794
0.22487
0.22487
0.224946
0.225023
0.225099
0.225176
0.225176
0.225252
0.225329
0.225405
0.225482
0.225482
0.225559
0.225635
0.225712
0.225789
0.225789
0.225866
0.225942
0.226019
0.226096
0.226096
0.226173
0.22625
0.226327
0.226404
0.226404
0.226482
0.226559
0.226636
0.226713
0.226713
0.22679
0.226868
0.226945
0.227023
0.227023
0.2271
0.227178
0.227255
0.227333
0.227333
0.22741
0.227488
0.227566
0.227643
0.227643
0.227721
0.227799
0.227877
0.227955
0.227955
0.228032
0.22811
0.228188
0.228266
0.228266
0.228345
0.228423
0.228501
0.228579
0.228579
0.228657
0.228736
0.228814
0.228892
0.228892
0.228971
0.229049
0.229127
0.229206
0.229206
0.229285
0.229363
0.229442
0.22952
0.22952
0.229599
0.229678
0.229757
0.229835
0.229835
0.229914
0.229993
0.230072
0.230151
0.230151
0.23023
0.230309
0.230388
0.230467
0.230467
0.230547
0.230626
0.230705
0.230784
0.230784
0.230864
0.230943
0.231022
0.231102
0.231102
0.231181
0.231261
0.231341
0.23142
0.23142
0.2315
0.231579
0.231659
0.231739
0.231739
0.231819
0.231899
0.231978
0.232058
0.232058
0.232138
0.232218
0.232298
0.232379
0.232379
0.232459
0.232539
0.232619
0.232699
0.232699
0.23278
0.23286
0.23294
0.233021
0.233021
0.233101
0.233181
0.233262
0.233343
0.233343
0.233423
0.233504
0.233584
0.233665
0.233665
0.233746
0.233827
0.233908
0.233988
0.233988
0.234069
0.23415
0.234231
0.234312
0.234312
0.234393
0.234474
0.234556
0.234637
0.234637
0.234718
0.234799
0.234881
0.234962
0.234962
0.235043
0.235125
0.235206
0.235288
0.235288
0.235369
0.235451
0.235532
0.235614
0.235614
0.235696
0.235778
0.235859
0.235941
0.235941
0.236023
0.236105
0.236187
0.236269
0.236269
0.236351
0.236433
0.236515
0.236597
0.236597
0.236679
0.236762
0.236844
0.236926
0.236926
0.237008
0.237091
0.237173
0.237256
0.237256
0.237338
0.237421
0.237503
0.237586
0.237586
0.237669
0.237751
0.237834
0.237917
0.237917
0.238
0.238082
0.238165
0.238248
0.238248
0.238331
0.238414
0.238497
0.23858
0.23858
0.238664
0.238747
0.23883
0.238913
0.238913
0.238996
0.23908
0.239163
0.239247
0.239247
0.23933
0.239413
0.239497
0.239581
0.239581
0.239664
0.239748
0.239831
0.239915
0.239915
0.239999
0.240083
0.240167
0.240251
0.240251
0.240334
0.240418
0.240502
0.240586
0.240586
0.240671
0.240755
0.240839
0.240923
0.240923
0.241007
0.241092
0.241176
0.24126
0.24126
0.241345
0.241429
0.241514
0.241598
0.241598
0.241683
0.241767
0.241852
0.241937
0.241937
0.242021
0.242106
0.242191
0.242276
0.242276
0.242361
0.242445
0.24253
0.242615
0.242615
0.2427
0.242786
0.242871
0.242956
0.242956
0.243041
0.243126
0.243212
0.243297
0.243297
0.243382
0.243468
0.243553
0.243639
0.243639
0.243724
0.24381
0.243895
0.243981
0.243981
0.244066
0.244152
0.244238
0.244324
0.244324
0.24441
0.244495
0.244581
0.244667
0.244667
0.244753
0.244839
0.244925
0.245012
0.245012
0.245098
0.245184
0.24527
0.245356
0.245356
0.245443
0.245529
0.245615
0.245702
0.245702
0.245788
0.245875
0.245961
0.246048
0.246048
0.246135
0.246221
0.246308
0.246395
0.246395
0.246482
0.246568
0.246655
0.246742
0.246742
0.246829
0.246916
0.247003
0.24709
0.24709
0.247177
0.247265
0.247352
0.247439
0.247439
0.247526
0.247614
0.247701
0.247788
0.247788
0.247876
0.247963
0.248051
0.248138
0.248138
0.248226
0.248314
0.248401
0.248489
0.248489
0.248577
0.248664
0.248752
0.24884
0.24884
0.248928
0.249016
0.249104
0.249192
0.249192
0.24928
0.249368
0.249456
0.249545
0.249545
0.249633
0.249721
0.249809
0.249898
0.249898
0.249986
0.250075
0.250163
0.250252
0.250252
0.25034
0.250429
0.250517
0.250606
0.250606
0.250695
0.250784
0.250872
0.250961
0.250961
0.25105
0.251139
0.251228
0.251317
0.251317
0.251406
0.251495
0.251584
0.251673
0.251673
0.251763
0.251852
0.251941
0.25203
0.25203
0.25212
0.252209
0.252299
0.252388
0.252388
0.252478
0.252567
0.252657
0.252746
0.252746
0.252836
0.252926
0.253015
0.253105
0.253105
0.253195
0.253285
0.253375
0.253465
0.253465
0.253555
0.253645
0.253735
0.253825
0.253825
0.253915
0.254005
0.254096
0.254186
0.254186
0.254276
0.254367
0.254457
0.254548
0.254548
0.254638
0.254729
0.254819
0.25491
0.25491
0.255
0.255091
0.255182
0.255272
0.255272
0.255363
0.255454
0.255545
0.255636
0.255636
0.255727
0.255818
0.255909
0.256
0.256
0.256091
0.256182
0.256274
0.256365
0.256365
0.256456
0.256547
0.256639
0.25673
0.25673
0.256822
0.256913
0.257005
0.257096
0.257096
0.257188
0.257279
0.257371
0.257463
0.257463
0.257555
0.257646
0.257738
0.25783
0.25783
0.257922
0.258014
0.258106
0.258198
0.258198
0.25829
0.258382
0.258475
0.258567
0.258567
0.258659
0.258751
0.258844
0.258936
0.258936
0.259028
0.259121
0.259213
0.259306
0.259306
0.259398
0.259491
0.259584
0.259676
0.259676
0.259769
0.259862
0.259955
0.260048
0.260048
0.260141
0.260233
0.260326
0.260419
0.260419
0.260513
0.260606
0.260699
0.260792
0.260792