<?xml version="1.0"?>
<VTKFile type="UnstructuredGrid" version="0.1" byte_order="LittleEndian">
<UnstructuredGrid>
<Piece NumberOfPoints="5000" NumberOfCells="4000">
<PointData Scalars="Reaction 0">
<DataArray type="Float32" Name="Reaction 0" format="ascii">
0.754036
0.754036
0.754036
0.754036
0.754036
0.754036
0.754036
0.754036
0.754036
0.754036
0.754036
0.754036
0.754036
0.754036
0.754036
0.754036
0.754037
0.754037
0.754037
0.754037
0.754037
0.754037
0.754037
0.754037
0.754037
0.754037
0.754037
0.754037
0.754038
0.754038
0.754038
0.754038
0.754038
0.754038
0.754038
0.754038
0.754039
0.754039
0.754039
0.754039
0.754039
0.754039
0.754039
0.75404
0.75404
0.75404
0.75404
0.75404
0.754041
0.754041
0.754041
0.754041
0.754041
0.754042
0.754042
0.754042
0.754042
0.754042
0.754043
0.754043
0.754043
0.754043
0.754044
0.754044
0.754044
0.754044
0.754044
0.754045
0.754045
0.754045
0.754045
0.754046
0.754046
0.754046
0.754047
0.754047
0.754047
0.754048
0.754048
0.754048
0.754048
0.754049
0.754049
0.754049
0.75405
0.75405
0.75405
0.754051
0.754051
0.754052
0.754052
0.754052
0.754052
0.754053
0.754053
0.754053
0.754054
0.754054
0.754055
0.754055
0.754055
0.754056
0.754056
0.754057
0.754057
0.754057
0.754058
0.754058
0.754059
0.754059
0.754059
0.75406
0.75406
0.754061
0.754061
0.754061
0.754062
0.754063
0.754063
0.754064
0.754064
0.754064
0.754065
0.754065
0.754066
0.754066
0.754067
0.754067
0.754068
0.754068
0.754068
0.754069
0.75407
0.75407
0.754071
0.754071
0.754072
0.754072
0.754073
0.754074
0.754074
0.754074
0.754075
0.754076
0.754076
0.754076
0.754077
0.754078
0.754078
0.754079
0.754079
0.75408
0.754081
0.754081
0.754082
0.754082
0.754083
0.754084
0.754084
0.754085
0.754085
0.754086
0.754087
0.754087
0.754088
0.754088
0.754089
0.75409
0.754091
0.754091
0.754091
0.754092
0.754093
0.754094
0.754095
0.754095
0.754096
0.754096
0.754097
0.754098
0.754098
0.754099
0.7541
0.754101
0.754102
0.754102
0.754103
0.754104
0.754104
0.754105
0.754105
0.754106
0.754107
0.754108
0.754109
0.754109
0.75411
0.754111
0.754112
0.754113
0.754113
0.754114
0.754115
0.754116
0.754117
0.754117
0.754118
0.754119
0.75412
0.754121
0.754121
0.754122
0.754123
0.754124
0.754125
0.754125
0.754126
0.754127
0.754128
0.754129
0.754129
0.75413
0.754131
0.754132
0.754133
0.754133
0.754134
0.754135
0.754136
0.754138
0.754138
0.754139
0.75414
0.754141
0.754142
0.754142
0.754143
0.754144
0.754145
0.754147
0.754147
0.754148
0.754149
0.75415
0.754151
0.754151
0.754152
0.754154
0.754155
0.754156
0.754156
0.754157
0.754158
0.75416
0.754161
0.754161
0.754162
0.754163
0.754165
0.754166
0.754166
0.754167
0.754168
0.75417
0.754171
0.754171
0.754172
0.754173
0.754175
0.754176
0.754176
0.754177
0.754179
0.75418
0.754181
0.754181
0.754183
0.754184
0.754185
0.754187
0.754187
0.754188
0.754189
0.754191
0.754192
0.754192
0.754193
0.754195
0.754196
0.754197
0.754197
0.754199
0.7542
0.754202
0.754203
0.754203
0.754205
0.754206
0.754207
0.754209
0.754209
0.75421
0.754212
0.754213
0.754215
0.754215
0.754216
0.754218
0.754219
0.754221
0.754221
0.754222
0.754224
0.754225
0.754227
0.754227
0.754228
0.75423
0.754231
0.754233
0.754233
0.754234
0.754236
0.754237
0.754239
0.754239
0.75424
0.754242
0.754244
0.754245
0.754245
0.754247
0.754248
0.75425
0.754252
0.754252
0.754253
0.754255
0.754256
0.754258
0.754258
0.75426
0.754261
0.754263
0.754265
0.754265
0.754266
0.754268
0.75427
0.754271
0.754271
0.754273
0.754275
0.754276
0.754278
0.754278
0.75428
0.754281
0.754283
0.754285
0.754285
0.754287
0.754288
0.75429
0.754292
0.754292
0.754294
0.754295
0.754297
0.754299
0.754299
0.754301
0.754302
0.754304
0.754306
0.754306
0.754308
0.75431
0.754311
0.754313
0.754313
0.754315
0.754317
0.754319
0.754321
0.754321
0.754323
0.754324
0.754326
0.754328
0.754328
0.75433
0.754332
0.754334
0.754336
0.754336
0.754338
0.754339
0.754341
0.754343
0.754343
0.754345
0.754347
0.754349
0.754351
0.754351
0.754353
0.754355
0.754357
0.754359
0.754359
0.754361
0.754363
0.754365
0.754367
0.754367
0.754369
0.754371
0.754373
0.754375
0.754375
0.754377
0.754379
0.754381
0.754383
0.754383
0.754385
0.754387
0.754389
0.754391
0.754391
0.754393
0.754395
0.754397
0.754399
0.754399
0.754402
0.754404
0.754406
0.754408
0.754408
0.75441
0.754412
0.754414
0.754416
0.754416
0.754418
0.754421
0.754423
0.754425
0.754425
0.754427
0.754429
0.754431
0.754434
0.754434
0.754436
0.754438
0.75444
0.754442
0.754442
0.754445
0.754447
0.754449
0.754451
0.754451
0.754454
0.754456
0.754458
0.75446
0.75446
0.754463
0.754465
0.754467
0.754469
0.754469
0.754472
0.754474
0.754476
0.754479
0.754479
0.754481
0.754483
0.754485
0.754488
0.754488
0.75449
0.754492
0.754495
0.754497
0.754497
0.7545
0.754502
0.754504
0.754507
0.754507
0.754509
0.754511
0.754514
0.754516
0.754516
0.754519
0.754521
0.754523
0.754526
0.754526
0.754528
0.754531
0.754533
0.754536
0.754536
0.754538
0.754541
0.754543
0.754545
0.754545
0.754548
0.75455
0.754553
0.754555
0.754555
0.754558
0.75456
0.754563
0.754565
0.754565
0.754568
0.75457
0.754573
0.754576
0.754576
0.754578
0.754581
0.754583
0.754586
0.754586
0.754588
0.754591
0.754594
0.754596
0.754596
0.754599
0.754601
0.754604
0.754607
0.754607
0.754609
0.754612
0.754614
0.754617
0.754617
0.75462
0.754622
0.754625
0.754628
0.754628
0.75463
0.754633
0.754636
0.754638
0.754638
0.754641
0.754644
0.754647
0.754649
0.754649
0.754652
0.754655
0.754657
0.75466
0.75466
0.754663
0.754666
0.754668
0.754671
0.754671
0.754674
0.754677
0.754679
0.754682
0.754682
0.754685
0.754688
0.754691
0.754693
0.754693
0.754696
0.754699
0.754702
0.754705
0.754705
0.754708
0.75471
0.754713
0.754716
0.754716
0.754719
0.754722
0.754725
0.754728
0.754728
0.75473
0.754733
0.754736
0.754739
0.754739
0.754742
0.754745
0.754748
0.754751
0.754751
0.754754
0.754757
0.75476
0.754763
0.754763
0.754766
0.754769
0.754772
0.754775
0.754775
0.754777
0.75478
0.754783
0.754786
0.754786
0.754789
0.754792
0.754796
0.754799
0.754799
0.754802
0.754805
0.754808
0.754811
0.754811
0.754814
0.754817
0.75482
0.754823
0.754823
0.754826
0.754829
0.754832
0.754835
0.754835
0.754838
0.754842
0.754845
0.754848
0.754848
0.754851
0.754854
0.754857
0.75486
0.75486
0.754863
0.754867
0.75487
0.754873
0.754873
0.754876
0.754879
0.754882
0.754886
0.754886
0.754889
0.754892
0.754895
0.754898
0.754898
0.754902
0.754905
0.754908
0.754911
0.754911
0.754915
0.754918
0.754921
0.754924
0.754924
0.754928
0.754931
0.754934
0.754938
0.754938
0.754941
0.754944
0.754947
0.754951
0.754951
0.754954
0.754957
0.754961
0.754964
0.754964
0.754967
0.754971
0.754974
0.754978
0.754978
0.754981
0.754984
0.754988
0.754991
0.754991
0.754994
0.754998
0.755001
0.755005
0.755005
0.755008
0.755012
0.755015
0.755018
0.755018
0.755022
0.755025
0.755029
0.755032
0.755032
0.755036
0.755039
0.755043
0.755046
0.755046
0.75505
0.755053
0.755057
0.75506
0.75506
0.755064
0.755067
0.755071
0.755074
0.755074
0.755078
0.755081
0.755085
0.755088
0.755088
0.755092
0.755095
0.755099
0.755103
0.755103
0.755106
0.75511
0.755113
0.755117
0.755117
0.755121
0.755124
0.755128
0.755131
0.755131
0.755135
0.755139
0.755142
0.755146
0.755146
0.75515
0.755153
0.755157
0.755161
0.755161
0.755164
0.755168
0.755172
0.755175
0.755175
0.755179
0.755183
0.755187
0.75519
0.75519
0.755194
0.755198
0.755202
0.755205
0.755205
0.755209
0.755213
0.755217
0.75522
0.75522
0.755224
0.755228
0.755232
0.755235
0.755235
0.755239
0.755243
0.755247
0.755251
0.755251
0.755255
0.755258
0.755262
0.755266
0.755266
0.75527
0.755274
0.755278
0.755281
0.755281
0.755285
0.755289
0.755293
0.755297
0.755297
0.755301
0.755305
0.755309
0.755313
0.755313
0.755317
0.75532
0.755324
0.755328
0.755328
0.755332
0.755336
0.75534
0.755344
0.755344
0.755348
0.755352
0.755356
0.75536
0.75536
0.755364
0.755368
0.755372
0.755376
0.755376
0.75538
0.755384
0.755388
0.755392
0.755392
0.755396
0.7554
0.755404
0.755409
0.755409
0.755413
0.755417
0.755421
0.755425
0.755425
0.755429
0.755433
0.755437
0.755441
0.755441
0.755445
0.755449
0.755454
0.755458
0.755458
0.755462
0.755466
0.75547
0.755474
0.755474
0.755478
0.755483
0.755487
0.755491
0.755491
0.755495
0.755499
0.755504
0.755508
0.755508
0.755512
0.755516
0.75552
0.755525
0.755525
0.755529
0.755533
0.755537
0.755542
0.755542
0.755546
0.75555
0.755554
0.755559
0.755559
0.755563
0.755567
0.755572
0.755576
0.755576
0.75558
0.755585
0.755589
0.755593
0.755593
0.755598
0.755602
0.755606
0.755611
0.755611
0.755615
0.755619
0.755624
0.755628
0.755628
0.755632
0.755637
0.755641
0.755646
0.755646
0.75565
0.755654
0.755659
0.755663
0.755663
0.755668
0.755672
0.755677
0.755681
0.755681
0.755686
0.75569
0.755694
0.755699
0.755699
0.755703
0.755708
0.755712
0.755717
0.755717
0.755721
0.755726
0.75573
0.755735
0.755735
0.755739
0.755744
0.755748
0.755753
0.755753
0.755758
0.755762
0.755767
0.755771
0.755771
0.755776
0.75578
0.755785
0.75579
0.75579
0.755794
0.755799
0.755803
0.755808
0.755808
0.755813
0.755817
0.755822
0.755827
0.755827
0.755831
0.755836
0.755841
0.755845
0.755845
0.75585
0.755855
0.755859
0.755864
0.755864
0.755869
0.755873
0.755878
0.755883
0.755883
0.755888
0.755892
0.755897
0.755902
0.755902
0.755906
0.755911
0.755916
0.755921
0.755921
0.755926
0.75593
0.755935
0.75594
0.75594
0.755945
0.755949
0.755954
0.755959
0.755959
0.755964
0.755969
0.755974
0.755978
0.755978
0.755983
0.755988
0.755993
0.755998
0.755998
0.756003
0.756008
0.756012
0.756017
0.756017
0.756022
0.756027
0.756032
0.756037
0.756037
0.756042
0.756047
0.756052
0.756057
0.756057
0.756062
0.756066
0.756071
0.756076
0.756076
0.756081
0.756086
0.756091
0.756096
0.756096
0.756101
0.756106
0.756111
0.756116
0.756116
0.756121
0.756126
0.756131
0.756136
0.756136
0.756141
0.756146
0.756151
0.756157
0.756157
0.756162
0.756167
0.756172
0.756177
0.756177
0.756182
0.756187
0.756192
0.756197
0.756197
0.756202
0.756207
0.756213
0.756218
0.756218
0.756223
0.756228
0.756233
0.756238
0.756238
0.756243
0.756249
0.756254
0.756259
0.756259
0.756264
0.756269
0.756274
0.75628
0.75628
0.756285
0.75629
0.756295
0.756301
0.756301
0.756306
0.756311
0.756316
0.756321
0.756321
0.756327
0.756332
0.756337
0.756343
0.756343
0.756348
0.756353
0.756358
0.756364
0.756364
0.756369
0.756374
0.75638
0.756385
0.756385
0.75639
0.756396
0.756401
0.756406
0.756406
0.756412
0.756417
0.756422
0.756428
0.756428
0.756433
0.756439
0.756444
0.756449
0.756449
0.756455
0.75646
0.756466
0.756471
0.756471
0.756476
0.756482
0.756487
0.756493
0.756493
0.756498
0.756504
0.756509
0.756515
0.756515
0.75652
0.756525
0.756531
0.756536
0.756536
0.756542
0.756547
0.756553
0.756558
0.756558
0.756564
0.756569
0.756575
0.756581
0.756581
0.756586
0.756592
0.756597
0.756603
0.756603
0.756608
0.756614
0.75662
0.756625
0.756625
0.756631
0.756636
0.756642
0.756648
0.756648
0.756653
0.756659
0.756664
0.75667
0.75667
0.756676
0.756681
0.756687
0.756693
0.756693
0.756698
0.756704
0.75671
0.756715
0.756715
0.756721
0.756727
0.756732
0.756738
0.756738
0.756744
0.75675
0.756755
0.756761
0.756761
0.756767
0.756773
0.756778
0.756784
0.756784
0.75679
0.756796
0.756801
0.756807
0.756807
0.756813
0.756819
0.756825
0.75683
0.75683
0.756836
0.756842
0.756848
0.756854
0.756854
0.75686
0.756865
0.756871
0.756877
0.756877
0.756883
0.756889
0.756895
0.756901
0.756901
0.756906
0.756912
0.756918
0.756924
0.756924
0.75693
0.756936
0.756942
0.756948
0.756948
0.756954
0.75696
0.756966
0.756972
0.756972
0.756978
0.756984
0.756989
0.756995
0.756995
0.757001
0.757007
0.757013
0.757019
0.757019
0.757025
0.757031
0.757037
0.757043
0.757043
0.75705
0.757056
0.757062
0.757068
0.757068
0.757074
0.75708
0.757086
0.757092
0.757092
0.757098
0.757104
0.75711
0.757116
0.757116
0.757122
0.757129
0.757135
0.757141
0.757141
0.757147
0.757153
0.757159
0.757165
0.757165
0.757171
0.757178
0.757184
0.75719
0.75719
0.757196
0.757202
0.757209
0.757215
0.757215
0.757221
0.757227
0.757233
0.75724
0.75724
0.757246
0.757252
0.757258
0.757265
0.757265
0.757271
0.757277
0.757283
0.75729
0.75729
0.757296
0.757302
0.757308
0.757315
0.757315
0.757321
0.757327
0.757334
0.75734
0.75734
0.757346
0.757353
0.757359
0.757365
0.757365
0.757372
0.757378
0.757384
0.757391
0.757391
0.757397
0.757403
0.75741
0.757416
0.757416
0.757423
0.757429
0.757435
0.757442
0.757442
0.757448
0.757455
0.757461
0.757468
0.757468
0.757474
0.757481
0.757487
0.757493
0.757493
0.7575
0.757506
0.757513
0.757519
0.757519
0.757526
0.757532
0.757539
0.757545
0.757545
0.757552
0.757558
0.757565
0.757572
0.757572
0.757578
0.757585
0.757591
0.757598
0.757598
0.757604
0.757611
0.757617
0.757624
0.757624
0.757631
0.757637
0.757644
0.75765
0.75765
0.757657
0.757664
0.75767
0.757677
0.757677
0.757684
0.75769
0.757697
0.757704
0.757704
0.75771
0.757717
0.757724
0.75773
0.75773
0.757737
0.757744
0.75775
0.757757
0.757757
0.757764
0.757771
0.757777
0.757784
0.757784
0.757791
0.757798
0.757804
0.757811
0.757811
0.757818
0.757825
0.757831
0.757838
0.757838
0.757845
0.757852
0.757858
0.757865
0.757865
0.757872
0.757879
0.757886
0.757893
0.757893
0.757899
0.757906
0.757913
0.75792
0.75792
0.757927
0.757934
0.757941
0.757947
0.757947
0.757954
0.757961
0.757968
0.757975
0.757975
0.757982
0.757989
0.757996
0.758003
0.758003
0.75801
0.758017
0.758024
0.758031
0.758031
0.758037
0.758044
0.758051
0.758058
0.758058
0.758065
0.758072
0.758079
0.758086
0.758086
0.758093
0.7581
0.758107
0.758114
0.758114
0.758121
0.758129
0.758136
0.758143
0.758143
0.75815
0.758157
0.758164
0.758171
0.758171
0.758178
0.758185
0.758192
0.758199
0.758199
0.758206
0.758214
0.758221
0.758228
0.758228
0.758235
0.758242
0.758249
0.758256
0.758256
0.758263
0.758271
0.758278
0.758285
0.758285
0.758292
0.758299
0.758307
0.758314
0.758314
0.758321
0.758328
0.758335
0.758343
0.758343
0.75835
0.758357
0.758364
0.758372
0.758372
0.758379
0.758386
0.758393
0.758401
0.758401
0.758408
0.758415
0.758422
0.75843
0.75843
0.758437
0.758444
0.758452
0.758459
0.758459
0.758466
0.758474
0.758481
0.758488
0.758488
0.758496
0.758503
0.75851
0.758518
0.758518
0.758525
0.758533
0.75854
0.758547
0.758547
0.758555
0.758562
0.75857
0.758577
0.758577
0.758584
0.758592
0.758599
0.758607
0.758607
0.758614
0.758622
0.758629
0.758637
0.758637
0.758644
0.758652
0.758659
0.758667
0.758667
0.758674
0.758682
0.758689
0.758697
0.758697
0.758704
0.758712
0.758719
0.758727
0.758727
0.758734
0.758742
0.758749
0.758757
0.758757
0.758764
0.758772
0.75878
0.758787
0.758787
0.758795
0.758802
0.75881
0.758818
0.758818
0.758825
0.758833
0.758841
0.758848
0.758848
0.758856
0.758864
0.758871
0.758879
0.758879
0.758887
0.758894
0.758902
0.75891
0.75891
0.758917
0.758925
0.758933
0.75894
0.75894
0.758948
0.758956
0.758964
0.758971
0.758971
0.758979
0.758987
0.758995
0.759002
0.759002
0.75901
0.759018
0.759026
0.759033
0.759033
0.759041
0.759049
0.759057
0.759065
0.759065
0.759072
0.75908
0.759088
0.759096
0.759096
0.759104
0.759112
0.75912
0.759127
0.759127
0.759135
0.759143
0.759151
0.759159
0.759159
0.759167
0.759175
0.759183
0.759191
0.759191
0.759198
0.759206
0.759214
0.759222
0.759222
0.75923
0.759238
0.759246
0.759254
0.759254
0.759262
0.75927
0.759278
0.759286
0.759286
0.759294
0.759302
0.75931
0.759318
0.759318
0.759326
0.759334
0.759342
0.75935
0.75935
0.759358
0.759366
0.759374
0.759382
0.759382
0.75939
0.759398
0.759406
0.759415
0.759415
0.759423
0.759431
0.759439
0.759447
0.759447
0.759455
0.759463
0.759471
0.759479
0.759479
0.759488
0.759496
0.759504
0.759512
0.759512
0.75952
0.759528
0.759537
0.759545
0.759545
0.759553
0.759561
0.759569
0.759578
0.759578
0.759586
0.759594
0.759602
0.75961
0.75961
0.759619
0.759627
0.759635
0.759643
0.759643
0.759652
0.75966
0.759668
0.759676
0.759676
0.759685
0.759693
0.759701
0.75971
0.75971
0.759718
0.759726
0.759735
0.759743
0.759743
0.759751
0.75976
0.759768
0.759776
0.759776
0.759785
0.759793
0.759801
0.75981
0.75981
0.759818
0.759827
0.759835
0.759843
0.759843
0.759852
0.75986
0.759869
0.759877
0.759877
0.759886
0.759894
0.759902
0.759911
0.759911
0.759919
0.759928
0.759936
0.759945
0.759945
0.759953
0.759962
0.75997
0.759979
0.759979
0.759987
0.759996
0.760004
0.760013
0.760013
0.760021
0.76003
0.760038
0.760047
0.760047
0.760056
0.760064
0.760073
0.760081
0.760081
0.76009
0.760098
0.760107
0.760116
0.760116
0.760124
0.760133
0.760141
0.76015
0.76015
0.760159
0.760167
0.760176
0.760185
0.760185
0.760193
0.760202
0.760211
0.760219
0.760219
0.760228
0.760237
0.760245
0.760254
0.760254
0.760263
0.760272
0.76028
0.760289
0.760289
0.760298
0.760306
0.760315
0.760324
0.760324
0.760333
0.760341
0.76035
0.760359
0.760359
0.760368
0.760377
0.760385
0.760394
0.760394
0.760403
0.760412
0.760421
0.760429
0.760429
0.760438
0.760447
0.760456
0.760465
0.760465
0.760474
0.760483
0.760491
0.7605
0.7605
0.760509
0.760518
0.760527
0.760536
0.760536
0.760545
0.760554
0.760563
0.760571
0.760571
0.76058
0.760589
0.760598
0.760607
0.760607
0.760616
0.760625
0.760634
0.760643
0.760643
0.760652
0.760661
0.76067
0.760679
0.760679
0.760688
0.760697
0.760706
0.760715
0.760715
0.760724
0.760733
0.760742
0.760751
0.760751
0.76076
0.760769
0.760778
0.760787
0.760787
0.760797
0.760806
0.760815
0.760824
0.760824
0.760833
0.760842
0.760851
0.76086
0.76086
0.760869
0.760879
0.760888
0.760897
0.760897
0.760906
0.760915
0.760924
0.760934
0.760934
0.760943
0.760952
0.760961
0.76097
0.76097
0.760979
0.760989
0.760998
0.761007
0.761007
0.761016
0.761026
0.761035
0.761044
0.761044
0.761053
0.761063
0.761072
0.761081
0.761081
0.76109
0.7611
0.761109
0.761118
0.761118
0.761128
0.761137
0.761146
0.761155
0.761155
0.761165
0.761174
0.761183
0.761193
0.761193
0.761202
0.761212
0.761221
0.76123
0.76123
0.76124
0.761249
0.761258
0.761268
0.761268
0.761277
0.761287
0.761296
0.761305
0.761305
0.761315
0.761324
0.761334
0.761343
0.761343
0.761353
0.761362
0.761372
0.761381
0.761381
0.761391
0.7614
0.761409
0.761419
0.761419
0.761428
0.761438
0.761447
0.761457
0.761457
0.761467
0.761476
0.761486
0.761495
0.761495
0.761505
0.761514
0.761524
0.761533
0.761533
0.761543
0.761553
0.761562
0.761572
0.761572
0.761581
0.761591
0.761601
0.76161
0.76161
0.76162
0.761629
0.761639
0.761649
0.761649
0.761658
0.761668
0.761678
0.761687
0.761687
0.761697
0.761707
0.761716
0.761726
0.761726
0.761736
0.761745
0.761755
0.761765
0.761765
0.761775
0.761784
0.761794
0.761804
0.761804
0.761814
0.761823
0.761833
0.761843
0.761843
0.761853
0.761862
0.761872
0.761882
0.761882
0.761892
0.761902
0.761911
0.761921
0.761921
0.761931
0.761941
0.761951
0.761961
0.761961
0.76197
0.76198
0.76199
0.762
0.762
0.76201
0.76202
0.76203
0.76204
0.76204
0.762049
0.762059
0.762069
0.762079
0.762079
0.762089
0.762099
0.762109
0.762119
0.762119
0.762129
0.762139
0.762149
0.762159
0.762159
0.762169
0.762179
0.762189
0.762199
0.762199
0.762209
0.762219
0.762229
0.762239
0.762239
0.762249
0.762259
0.762269
0.762279
0.762279
0.762289
0.762299
0.762309
0.762319
0.762319
0.762329
0.762339
0.762349
0.762359
0.762359
0.76237
0.76238
0.76239
0.7624
0.7624
0.76241
0.76242
0.76243
0.76244
0.76244
0.762451
0.762461
0.762471
0.762481
0.762481
0.762491
0.762501
0.762512
0.762522
0.762522
0.762532
0.762542
0.762552
0.762563
0.762563
0.762573
0.762583
0.762593
0.762604
0.762604
0.762614
0.762624
0.762634
0.762645
0.762645
0.762655
0.762665
0.762675
0.762686
0.762686
0.762696
0.762706
0.762717
0.762727
0.762727
0.762737
0.762748
0.762758
0.762768
0.762768
0.762779
0.762789
0.762799
0.76281
0.76281
0.76282
0.76283
0.762841
0.762851
0.762851
0.762862
0.762872
0.762882
0.762893
0.762893
0.762903
0.762914
0.762924
0.762935
0.762935
0.762945
0.762955
0.762966
0.762976
0.762976
0.762987
0.762997
0.763008
0.763018
0.763018
0.763029
0.763039
0.76305
0.76306
0.76306
0.763071
0.763081
0.763092
0.763102
0.763102
0.763113
0.763124
0.763134
0.763145
0.763145
0.763155
0.763166
0.763176
0.763187
0.763187
0.763198
0.763208
0.763219
0.76323
0.76323
0.76324
0.763251
0.763261
0.763272
0.763272
0.763283
0.763293
0.763304
0.763315
0.763315
0.763325
0.763336
0.763347
0.763357
0.763357
0.763368
0.763379
0.76339
0.7634
0.7634
0.763411
0.763422
0.763432
0.763443
0.763443
0.763454
0.763465
0.763475
0.763486
0.763486
0.763497
0.763508
0.763519
0.763529
0.763529
0.76354
0.763551
0.763562
0.763573
0.763573
0.763583
0.763594
0.763605
0.763616
0.763616
0.763627
0.763638
0.763649
0.763659
0.763659
0.76367
0.763681
0.763692
0.763703
0.763703
0.763714
0.763725
0.763736
0.763747
0.763747
0.763757
0.763768
0.763779
0.76379
0.76379
0.763801
0.763812
0.763823
0.763834
0.763834
0.763845
0.763856
0.763867
0.763878
0.763878
0.763889
0.7639
0.763911
0.763922
0.763922
0.763933
0.763944
0.763955
0.763966
0.763966
0.763977
0.763988
0.763999
0.76401
0.76401
0.764022
0.764033
0.764044
0.764055
0.764055
0.764066
0.764077
0.764088
0.764099
0.764099
0.76411
0.764122
0.764133
0.764144
0.764144
0.764155
0.764166
0.764177
0.764188
0.764188
0.7642
0.764211
0.764222
0.764233
0.764233
0.764244
0.764256
0.764267
0.764278
0.764278
0.764289
0.7643
0.764312
0.764323
0.764323
0.764334
0.764345
0.764357
0.764368
0.764368
0.764379
0.764391
0.764402
0.764413
0.764413
0.764424
0.764436
0.764447
0.764458
0.764458
0.76447
0.764481
0.764492
0.764504
0.764504
0.764515
0.764526
0.764538
0.764549
0.764549
0.764561
0.764572
0.764583
0.764595
0.764595
0.764606
0.764618
0.764629
0.76464
0.76464
0.764652
0.764663
0.764675
0.764686
0.764686
0.764698
0.764709
0.764721
0.764732
0.764732
0.764743
0.764755
0.764766
0.764778
0.764778
0.764789
0.764801
0.764813
0.764824
0.764824
0.764836
0.764847
0.764859
0.76487
0.76487
0.764882
0.764893
0.764905
0.764916
0.764916
0.764928
0.76494
0.764951
0.764963
0.764963
0.764974
0.764986
0.764998
0.765009
0.765009
0.765021
0.765033
0.765044
0.765056
0.765056
0.765067
0.765079
0.765091
0.765102
0.765102
0.765114
0.765126
0.765138
0.765149
0.765149
0.765161
0.765173
0.765184
0.765196
0.765196
0.765208
0.76522
0.765231
0.765243
0.765243
0.765255
0.765267
0.765278
0.76529
0.76529
0.765302
0.765314
0.765326
0.765337
0.765337
0.765349
0.765361
0.765373
0.765385
0.765385
0.765396
0.765408
0.76542
0.765432
0.765432
0.765444
0.765456
0.765468
0.765479
0.765479
0.765491
0.765503
0.765515
0.765527
0.765527
0.765539
0.765551
0.765563
0.765575
0.765575
0.765587
0.765599
0.76561
0.765622
0.765622
0.765634
0.765646
0.765658
0.76567
0.76567
0.765682
0.765694
0.765706
0.765718
0.765718
0.76573
0.765742
0.765754
0.765766
0.765766
0.765778
0.76579
0.765802
0.765815
0.765815
0.765827
0.765839
0.765851
0.765863
0.765863
0.765875
0.765887
0.765899
0.765911
0.765911
0.765923
0.765935
0.765948
0.76596
0.76596
0.765972
0.765984
0.765996
0.766008
0.766008
0.76602
0.766033
0.766045
0.766057
0.766057
0.766069
0.766081
0.766094
0.766106
0.766106
0.766118
0.76613
0.766142
0.766155
0.766155
0.766167
0.766179
0.766191
0.766204
0.766204
0.766216
0.766228
0.76624
0.766253
0.766253
0.766265
0.766277
0.76629
0.766302
0.766302
0.766314
0.766327
0.766339
0.766351
0.766351
0.766364
0.766376
0.766388
0.766401
0.766401
0.766413
0.766425
0.766438
0.76645
0.76645
0.766462
0.766475
0.766487
0.7665
0.7665
0.766512
0.766525
0.766537
0.766549
0.766549
0.766562
0.766574
0.766587
0.766599
0.766599
0.766612
0.766624
0.766637
0.766649
0.766649
0.766662
0.766674
0.766687
0.766699
0.766699
0.766712
0.766724
0.766737
0.766749
0.766749
0.766762
0.766774
0.766787
0.766799
0.766799
0.766812
0.766825
0.766837
0.76685
0.76685
0.766862
0.766875
0.766888
0.7669
0.7669
0.766913
0.766925
0.766938
0.766951
0.766951
0.766963
0.766976
0.766989
0.767001
0.767001
0.767014
0.767027
0.767039
0.767052
0.767052
0.767065
0.767077
0.76709
0.767103
0.767103
0.767116
0.767128
0.767141
0.767154
0.767154
0.767167
0.767179
0.767192
0.767205
0.767205
0.767218
0.76723
0.767243
0.767256
0.767256
0.767269
0.767281
0.767294
0.767307
0.767307
0.76732
0.767333
0.767346
0.767358
0.767358
0.767371
0.767384
0.767397
0.76741
0.76741
0.767423
0.767436
0.767449
0.767461
0.767461
0.767474
0.767487
0.7675
0.767513
0.767513
0.767526
0.767539
0.767552
0.767565
0.767565
0.767578
0.767591
0.767604
0.767617
0.767617
0.76763
0.767643
0.767656
0.767669
0.767669
0.767682
0.767695
0.767708
0.767721
0.767721
0.767734
0.767747
0.76776
0.767773
0.767773
0.767786
0.767799
0.767812
0.767825
0.767825
0.767838
0.767851
0.767864
0.767877
0.767877
0.767891
0.767904
0.767917
0.76793
0.76793
0.767943
0.767956
0.767969
0.767982
0.767982
0.767996
0.768009
0.768022
0.768035
0.768035
0.768048
0.768061
0.768075
0.768088
0.768088
0.768101
0.768114
0.768127
0.768141
0.768141
0.768154
0.768167
0.76818
0.768194
0.768194
0.768207
0.76822
0.768233
0.768247
0.768247
0.76826
0.768273
0.768287
0.7683
0.7683
0.768313
0.768327
0.76834
0.768353
0.768353
0.768367
0.76838
0.768393
0.768407
0.768407
0.76842
0.768433
0.768447
0.76846
0.76846
0.768473
0.768487
0.7685
0.768514
0.768514
0.768527
0.76854
0.768554
0.768567
0.768567
0.768581
0.768594
0.768608
0.768621
0.768621
0.768635
0.768648
0.768661
0.768675
0.768675
0.768688
0.768702
0.768715
0.768729
0.768729
0.768742
0.768756
0.76877
0.768783
0.768783
0.768797
0.76881
0.768824
0.768837
0.768837
0.768851
0.768864
0.768878
0.768892
0.768892
0.768905
0.768919
0.768932
0.768946
0.768946
0.76896
0.768973
0.768987
0.769
0.769
0.769014
0.769028
0.769041
0.769055
0.769055
0.769069
0.769082
0.769096
0.76911
0.76911
0.769123
0.769137
0.769151
0.769165
0.769165
0.769178
0.769192
0.769206
0.769219
0.769219
0.769233
0.769247
0.769261
0.769275
0.769275
0.769288
0.769302
0.769316
0.76933
0.76933
0.769343
0.769357
0.769371
0.769385
0.769385
0.769399
0.769413
0.769426
0.76944
0.76944
0.769454
0.769468
0.769482
0.769496
0.769496
0.76951
0.769523
0.769537
0.769551
0.769551
0.769565
0.769579
0.769593
0.769607
0.769607
0.769621
0.769635
0.769649
0.769663
0.769663
0.769676
0.76969
0.769704
0.769718
0.769718
0.769732
0.769746
0.76976
0.769774
0.769774
0.769788
0.769802
0.769816
0.76983
0.76983
0.769844
0.769858
0.769872
0.769887
0.769887
0.769901
0.769915
0.769929
0.769943
0.769943
0.769957
0.769971
0.769985
0.769999
0.769999
0.770013
0.770027
0.770041
0.770056
0.770056
0.77007
0.770084
0.770098
0.770112
0.770112
0.770126
0.77014
0.770155
0.770169
0.770169
0.770183
0.770197
0.770211
0.770226
0.770226
0.77024
0.770254
0.770268
0.770282
0.770282
0.770297
0.770311
0.770325
0.770339
0.770339
0.770354
0.770368
0.770382
0.770397
0.770397
0.770411
0.770425
0.770439
0.770454
0.770454
0.770468
0.770482
0.770497
0.770511
0.770511
0.770525
0.77054
0.770554
0.770568
0.770568
0.770583
0.770597
0.770611
0.770626
0.770626
0.77064
0.770655
0.770669
0.770683
0.770683
0.770698
0.770712
0.770727
0.770741
0.770741
0.770756
0.77077
0.770785
0.770799
0.770799
0.770813
0.770828
0.770842
0.770857
0.770857
0.770871
0.770886
0.7709
0.770915
0.770915
0.770929
0.770944
0.770958
0.770973
0.770973
0.770988
0.771002
0.771017
0.771031
0.771031
0.771046
0.77106
0.771075
0.77109
0.77109
0.771104
0.771119
0.771133
0.771148
0.771148
0.771163
0.771177
0.771192
0.771207
0.771207
0.771221
0.771236
0.77125
0.771265
0.771265
0.77128
0.771294
0.771309
0.771324
0.771324
0.771339
0.771353
0.771368
0.771383
0.771383
0.771397
0.771412
0.771427
0.771442
0.771442
0.771456
0.771471
0.771486
0.771501
0.771501
0.771515
0.77153
0.771545
0.77156
0.77156
0.771575
0.771589
0.771604
0.771619
0.771619
0.771634
0.771649
0.771664
0.771678
0.771678
0.771693
0.771708
0.771723
0.771738
0.771738
0.771753
0.771768
0.771783
0.771797
0.771797
0.771812
0.771827
0.771842
0.771857
0.771857
0.771872
0.771887
0.771902
0.771917
0.771917
0.771932
0.771947
0.771962
0.771977
0.771977
0.771992
0.772007
0.772022
0.772037
0.772037
0.772052
0.772067
0.772082
0.772097
0.772097
0.772112
0.772127
0.772142
0.772157
0.772157
0.772172
0.772187
0.772202
0.772217
0.772217
0.772232
0.772248
0.772263
0.772278
0.772278
0.772293
0.772308
0.772323
0.772338
0.772338
0.772353
0.772369
0.772384
0.772399
0.772399
0.772414
0.772429
0.772444
0.77246
0.77246
0.772475
0.77249
0.772505
0.77252
0.77252
0.772536
0.772551
0.772566
0.772581
0.772581
0.772597
0.772612
0.772627
0.772642
0.772642
0.772658
0.772673
0.772688
0.772703
0.772703
0.772719
0.772734
0.772749
0.772765
0.772765
0.77278
0.772795
0.772811
0.772826
0.772826
0.772841
0.772857
0.772872
0.772887
0.772887
0.772903
0.772918
0.772934
0.772949
0.772949
0.772964
0.77298
0.772995
0.773011
0.773011
0.773026
0.773042
0.773057
0.773072
0.773072
0.773088
0.773103
0.773119
0.773134
0.773134
0.77315
0.773165
0.773181
0.773196
0.773196
0.773212
0.773227
0.773243
0.773258
0.773258
0.773274
0.773289
0.773305
0.77332
0.77332
0.773336
0.773352
0.773367
0.773383
0.773383
0.773398
0.773414
0.773429
0.773445
0.773445
0.773461
0.773476
0.773492
0.773508
0.773508
0.773523
0.773539
0.773555
0.77357
0.77357
0.773586
0.773602
0.773617
0.773633
0.773633
0.773649
0.773664
0.77368
0.773696
0.773696
0.773711
0.773727
0.773743
0.773759
0.773759
0.773774
0.77379
0.773806
0.773822
0.773822
0.773837
0.773853
0.773869
0.773885
0.773885
0.7739
0.773916
0.773932
0.773948
0.773948
0.773964
0.77398
0.773995
0.774011
0.774011
0.774027
0.774043
0.774059
0.774075
0.774075
0.774091
0.774106
0.774122
0.774138
0.774138
0.774154
0.77417
0.774186
0.774202
0.774202
0.774218
0.774234
0.77425
0.774266
0.774266
0.774282
0.774297
0.774313
0.774329
0.774329
0.774345
0.774361
0.774377
0.774393
0.774393
0.774409
0.774425
0.774441
0.774457
0.774457
0.774473
0.774489
0.774506
0.774522
0.774522
0.774538
0.774554
0.77457
0.774586
0.774586
0.774602
0.774618
0.774634
0.77465
0.77465
0.774666
0.774682
0.774699
0.774715
0.774715
0.774731
0.774747
0.774763
0.774779
0.774779
0.774795
0.774812
0.774828
0.774844
0.774844
0.77486
0.774876
0.774892
0.774909
0.774909
0.774925
0.774941
0.774957
0.774974
0.774974
0.77499
0.775006
0.775022
0.775039
0.775039
0.775055
0.775071
0.775087
0.775104
0.775104
0.77512
0.775136
0.775153
0.775169
0.775169
0.775185
0.775202
0.775218
0.775234
0.775234
0.775251
0.775267
0.775283
0.7753
0.7753
0.775316
0.775332
0.775349
0.775365
0.775365
0.775382
0.775398
0.775414
0.775431
0.775431
0.775447
0.775464
0.77548
0.775497
0.775497
0.775513
0.775529
0.775546
0.775562
0.775562
0.775579
0.775595
0.775612
0.775628
0.775628
0.775645
0.775661
0.775678
0.775694
0.775694
0.775711
0.775727
0.775744
0.775761
0.775761
0.775777
0.775794
0.77581
0.775827
0.775827
0.775843
0.77586
0.775877
0.775893
0.775893