<?xml version="1.0"?>
<VTKFile type="UnstructuredGrid" version="0.1" byte_order="LittleEndian">
<UnstructuredGrid>
<Piece NumberOfPoints="5000" NumberOfCells="4000">
<PointData Scalars="Reaction 0">
<DataArray type="Float32" Name="Reaction 0" format="ascii">
0.664049
0.664049
0.664049
0.664049
0.664049
0.664049
0.664049
0.664049
0.664049
0.664049
0.664049
0.664049
0.664049
0.664049
0.664049
0.664049
0.664049
0.664049
0.664049
0.664049
0.664049
0.66405
0.66405
0.66405
0.66405
0.66405
0.66405
0.66405
0.66405
0.66405
0.66405
0.66405
0.66405
0.66405
0.664051
0.664051
0.664051
0.664051
0.664051
0.664051
0.664051
0.664051
0.664051
0.664052
0.664052
0.664052
0.664052
0.664052
0.664052
0.664052
0.664052
0.664053
0.664053
0.664053
0.664053
0.664053
0.664053
0.664054
0.664054
0.664054
0.664054
0.664054
0.664054
0.664055
0.664055
0.664055
0.664055
0.664055
0.664056
0.664056
0.664056
0.664056
0.664056
0.664057
0.664057
0.664057
0.664057
0.664057
0.664058
0.664058
0.664058
0.664058
0.664058
0.664059
0.664059
0.664059
0.664059
0.66406
0.66406
0.66406
0.66406
0.664061
0.664061
0.664061
0.664062
0.664062
0.664062
0.664062
0.664063
0.664063
0.664063
0.664063
0.664064
0.664064
0.664064
0.664064
0.664065
0.664065
0.664066
0.664066
0.664066
0.664066
0.664067
0.664067
0.664068
0.664068
0.664068
0.664068
0.664069
0.664069
0.664069
0.66407
0.66407
0.664071
0.664071
0.664071
0.664071
0.664072
0.664072
0.664073
0.664073
0.664073
0.664074
0.664074
0.664075
0.664075
0.664075
0.664076
0.664076
0.664077
0.664077
0.664077
0.664078
0.664078
0.664079
0.664079
0.664079
0.66408
0.66408
0.664081
0.664081
0.664081
0.664082
0.664082
0.664083
0.664083
0.664083
0.664084
0.664085
0.664085
0.664085
0.664086
0.664086
0.664087
0.664087
0.664087
0.664088
0.664089
0.664089
0.66409
0.66409
0.66409
0.664091
0.664092
0.664092
0.664092
0.664093
0.664093
0.664094
0.664095
0.664095
0.664095
0.664096
0.664097
0.664097
0.664097
0.664098
0.664099
0.664099
0.6641
0.6641
0.664101
0.664101
0.664102
0.664103
0.664103
0.664103
0.664104
0.664105
0.664106
0.664106
0.664106
0.664107
0.664108
0.664108
0.664108
0.664109
0.66411
0.664111
0.664111
0.664111
0.664112
0.664113
0.664114
0.664114
0.664114
0.664115
0.664116
0.664117
0.664117
0.664117
0.664118
0.664119
0.66412
0.664121
0.664121
0.664121
0.664122
0.664123
0.664124
0.664124
0.664125
0.664125
0.664126
0.664127
0.664127
0.664128
0.664129
0.66413
0.66413
0.66413
0.664131
0.664132
0.664133
0.664134
0.664134
0.664135
0.664136
0.664137
0.664137
0.664137
0.664138
0.664139
0.66414
0.664141
0.664141
0.664142
0.664143
0.664144
0.664145
0.664145
0.664146
0.664146
0.664147
0.664148
0.664148
0.664149
0.66415
0.664151
0.664152
0.664152
0.664153
0.664154
0.664155
0.664156
0.664156
0.664157
0.664158
0.664159
0.66416
0.66416
0.664161
0.664162
0.664163
0.664164
0.664164
0.664165
0.664166
0.664167
0.664168
0.664168
0.664169
0.66417
0.664171
0.664172
0.664172
0.664173
0.664174
0.664175
0.664176
0.664176
0.664177
0.664178
0.66418
0.664181
0.664181
0.664182
0.664183
0.664184
0.664185
0.664185
0.664186
0.664187
0.664188
0.664189
0.664189
0.664191
0.664192
0.664193
0.664194
0.664194
0.664195
0.664196
0.664197
0.664199
0.664199
0.6642
0.664201
0.664202
0.664203
0.664203
0.664204
0.664206
0.664207
0.664208
0.664208
0.664209
0.66421
0.664211
0.664213
0.664213
0.664214
0.664215
0.664216
0.664218
0.664218
0.664219
0.66422
0.664221
0.664222
0.664222
0.664224
0.664225
0.664226
0.664227
0.664227
0.664229
0.66423
0.664231
0.664233
0.664233
0.664234
0.664235
0.664236
0.664238
0.664238
0.664239
0.66424
0.664242
0.664243
0.664243
0.664244
0.664245
0.664247
0.664248
0.664248
0.664249
0.664251
0.664252
0.664253
0.664253
0.664255
0.664256
0.664258
0.664259
0.664259
0.66426
0.664262
0.664263
0.664264
0.664264
0.664266
0.664267
0.664269
0.66427
0.66427
0.664271
0.664273
0.664274
0.664276
0.664276
0.664277
0.664278
0.66428
0.664281
0.664281
0.664283
0.664284
0.664286
0.664287
0.664287
0.664289
0.66429
0.664292
0.664293
0.664293
0.664294
0.664296
0.664297
0.664299
0.664299
0.6643
0.664302
0.664303
0.664305
0.664305
0.664306
0.664308
0.664309
0.664311
0.664311
0.664312
0.664314
0.664316
0.664317
0.664317
0.664319
0.66432
0.664322
0.664323
0.664323
0.664325
0.664326
0.664328
0.66433
0.66433
0.664331
0.664333
0.664334
0.664336
0.664336
0.664338
0.664339
0.664341
0.664342
0.664342
0.664344
0.664346
0.664347
0.664349
0.664349
0.664351
0.664352
0.664354
0.664355
0.664355
0.664357
0.664359
0.66436
0.664362
0.664362
0.664364
0.664365
0.664367
0.664369
0.664369
0.66437
0.664372
0.664374
0.664376
0.664376
0.664377
0.664379
0.664381
0.664382
0.664382
0.664384
0.664386
0.664388
0.664389
0.664389
0.664391
0.664393
0.664395
0.664396
0.664396
0.664398
0.6644
0.664402
0.664403
0.664403
0.664405
0.664407
0.664409
0.664411
0.664411
0.664412
0.664414
0.664416
0.664418
0.664418
0.66442
0.664421
0.664423
0.664425
0.664425
0.664427
0.664429
0.664431
0.664432
0.664432
0.664434
0.664436
0.664438
0.66444
0.66444
0.664442
0.664444
0.664445
0.664447
0.664447
0.664449
0.664451
0.664453
0.664455
0.664455
0.664457
0.664459
0.664461
0.664463
0.664463
0.664464
0.664466
0.664468
0.66447
0.66447
0.664472
0.664474
0.664476
0.664478
0.664478
0.66448
0.664482
0.664484
0.664486
0.664486
0.664488
0.66449
0.664492
0.664494
0.664494
0.664496
0.664498
0.6645
0.664502
0.664502
0.664504
0.664506
0.664508
0.66451
0.66451
0.664512
0.664514
0.664516
0.664518
0.664518
0.66452
0.664522
0.664524
0.664526
0.664526
0.664528
0.66453
0.664532
0.664535
0.664535
0.664537
0.664539
0.664541
0.664543
0.664543
0.664545
0.664547
0.664549
0.664551
0.664551
0.664553
0.664556
0.664558
0.66456
0.66456
0.664562
0.664564
0.664566
0.664568
0.664568
0.664571
0.664573
0.664575
0.664577
0.664577
0.664579
0.664581
0.664584
0.664586
0.664586
0.664588
0.66459
0.664592
0.664595
0.664595
0.664597
0.664599
0.664601
0.664603
0.664603
0.664606
0.664608
0.66461
0.664612
0.664612
0.664615
0.664617
0.664619
0.664621
0.664621
0.664624
0.664626
0.664628
0.66463
0.66463
0.664633
0.664635
0.664637
0.66464
0.66464
0.664642
0.664644
0.664646
0.664649
0.664649
0.664651
0.664653
0.664656
0.664658
0.664658
0.66466
0.664663
0.664665
0.664667
0.664667
0.66467
0.664672
0.664674
0.664677
0.664677
0.664679
0.664682
0.664684
0.664686
0.664686
0.664689
0.664691
0.664694
0.664696
0.664696
0.664698
0.664701
0.664703
0.664706
0.664706
0.664708
0.66471
0.664713
0.664715
0.664715
0.664718
0.66472
0.664723
0.664725
0.664725
0.664728
0.66473
0.664733
0.664735
0.664735
0.664737
0.66474
0.664742
0.664745
0.664745
0.664747
0.66475
0.664752
0.664755
0.664755
0.664757
0.66476
0.664763
0.664765
0.664765
0.664768
0.66477
0.664773
0.664775
0.664775
0.664778
0.66478
0.664783
0.664785
0.664785
0.664788
0.664791
0.664793
0.664796
0.664796
0.664798
0.664801
0.664804
0.664806
0.664806
0.664809
0.664811
0.664814
0.664817
0.664817
0.664819
0.664822
0.664824
0.664827
0.664827
0.66483
0.664832
0.664835
0.664838
0.664838
0.66484
0.664843
0.664846
0.664848
0.664848
0.664851
0.664854
0.664856
0.664859
0.664859
0.664862
0.664864
0.664867
0.66487
0.66487
0.664873
0.664875
0.664878
0.664881
0.664881
0.664884
0.664886
0.664889
0.664892
0.664892
0.664894
0.664897
0.6649
0.664903
0.664903
0.664906
0.664908
0.664911
0.664914
0.664914
0.664917
0.664919
0.664922
0.664925
0.664925
0.664928
0.664931
0.664933
0.664936
0.664936
0.664939
0.664942
0.664945
0.664948
0.664948
0.66495
0.664953
0.664956
0.664959
0.664959
0.664962
0.664965
0.664968
0.66497
0.66497
0.664973
0.664976
0.664979
0.664982
0.664982
0.664985
0.664988
0.664991
0.664994
0.664994
0.664996
0.664999
0.665002
0.665005
0.665005
0.665008
0.665011
0.665014
0.665017
0.665017
0.66502
0.665023
0.665026
0.665029
0.665029
0.665032
0.665035
0.665038
0.665041
0.665041
0.665044
0.665047
0.66505
0.665053
0.665053
0.665056
0.665059
0.665062
0.665065
0.665065
0.665068
0.665071
0.665074
0.665077
0.665077
0.66508
0.665083
0.665086
0.665089
0.665089
0.665092
0.665095
0.665098
0.665101
0.665101
0.665104
0.665108
0.665111
0.665114
0.665114
0.665117
0.66512
0.665123
0.665126
0.665126
0.665129
0.665132
0.665135
0.665139
0.665139
0.665142
0.665145
0.665148
0.665151
0.665151
0.665154
0.665157
0.665161
0.665164
0.665164
0.665167
0.66517
0.665173
0.665176
0.665176
0.66518
0.665183
0.665186
0.665189
0.665189
0.665192
0.665196
0.665199
0.665202
0.665202
0.665205
0.665209
0.665212
0.665215
0.665215
0.665218
0.665222
0.665225
0.665228
0.665228
0.665231
0.665235
0.665238
0.665241
0.665241
0.665244
0.665248
0.665251
0.665254
0.665254
0.665258
0.665261
0.665264
0.665267
0.665267
0.665271
0.665274
0.665277
0.665281
0.665281
0.665284
0.665287
0.665291
0.665294
0.665294
0.665297
0.665301
0.665304
0.665308
0.665308
0.665311
0.665314
0.665318
0.665321
0.665321
0.665324
0.665328
0.665331
0.665335
0.665335
0.665338
0.665341
0.665345
0.665348
0.665348
0.665352
0.665355
0.665359
0.665362
0.665362
0.665365
0.665369
0.665372
0.665376
0.665376
0.665379
0.665383
0.665386
0.66539
0.66539
0.665393
0.665397
0.6654
0.665404
0.665404
0.665407
0.665411
0.665414
0.665418
0.665418
0.665421
0.665425
0.665428
0.665432
0.665432
0.665435
0.665439
0.665442
0.665446
0.665446
0.665449
0.665453
0.665457
0.66546
0.66546
0.665464
0.665467
0.665471
0.665474
0.665474
0.665478
0.665482
0.665485
0.665489
0.665489
0.665492
0.665496
0.6655
0.665503
0.665503
0.665507
0.665511
0.665514
0.665518
0.665518
0.665522
0.665525
0.665529
0.665533
0.665533
0.665536
0.66554
0.665544
0.665547
0.665547
0.665551
0.665555
0.665558
0.665562
0.665562
0.665566
0.665569
0.665573
0.665577
0.665577
0.665581
0.665584
0.665588
0.665592
0.665592
0.665595
0.665599
0.665603
0.665607
0.665607
0.66561
0.665614
0.665618
0.665622
0.665622
0.665625
0.665629
0.665633
0.665637
0.665637
0.665641
0.665644
0.665648
0.665652
0.665652
0.665656
0.66566
0.665664
0.665667
0.665667
0.665671
0.665675
0.665679
0.665683
0.665683
0.665687
0.66569
0.665694
0.665698
0.665698
0.665702
0.665706
0.66571
0.665714
0.665714
0.665718
0.665721
0.665725
0.665729
0.665729
0.665733
0.665737
0.665741
0.665745
0.665745
0.665749
0.665753
0.665757
0.665761
0.665761
0.665765
0.665768
0.665772
0.665776
0.665776
0.66578
0.665784
0.665788
0.665792
0.665792
0.665796
0.6658
0.665804
0.665808
0.665808
0.665812
0.665816
0.66582
0.665824
0.665824
0.665828
0.665832
0.665836
0.66584
0.66584
0.665844
0.665848
0.665852
0.665857
0.665857
0.665861
0.665865
0.665869
0.665873
0.665873
0.665877
0.665881
0.665885
0.665889
0.665889
0.665893
0.665897
0.665901
0.665905
0.665905
0.66591
0.665914
0.665918
0.665922
0.665922
0.665926
0.66593
0.665934
0.665938
0.665938
0.665943
0.665947
0.665951
0.665955
0.665955
0.665959
0.665963
0.665968
0.665972
0.665972
0.665976
0.66598
0.665984
0.665989
0.665989
0.665993
0.665997
0.666001
0.666005
0.666005
0.66601
0.666014
0.666018
0.666022
0.666022
0.666027
0.666031
0.666035
0.666039
0.666039
0.666044
0.666048
0.666052
0.666056
0.666056
0.666061
0.666065
0.666069
0.666074
0.666074
0.666078
0.666082
0.666086
0.666091
0.666091
0.666095
0.666099
0.666104
0.666108
0.666108
0.666112
0.666117
0.666121
0.666125
0.666125
0.66613
0.666134
0.666138
0.666143
0.666143
0.666147
0.666152
0.666156
0.66616
0.66616
0.666165
0.666169
0.666174
0.666178
0.666178
0.666182
0.666187
0.666191
0.666196
0.666196
0.6662
0.666205
0.666209
0.666213
0.666213
0.666218
0.666222
0.666227
0.666231
0.666231
0.666236
0.66624
0.666245
0.666249
0.666249
0.666254
0.666258
0.666263
0.666267
0.666267
0.666272
0.666276
0.666281
0.666285
0.666285
0.66629
0.666294
0.666299
0.666303
0.666303
0.666308
0.666312
0.666317
0.666321
0.666321
0.666326
0.666331
0.666335
0.66634
0.66634
0.666344
0.666349
0.666353
0.666358
0.666358
0.666363
0.666367
0.666372
0.666376
0.666376
0.666381
0.666386
0.66639
0.666395
0.666395
0.6664
0.666404
0.666409
0.666414
0.666414
0.666418
0.666423
0.666427
0.666432
0.666432
0.666437
0.666442
0.666446
0.666451
0.666451
0.666456
0.66646
0.666465
0.66647
0.66647
0.666474
0.666479
0.666484
0.666489
0.666489
0.666493
0.666498
0.666503
0.666508
0.666508
0.666512
0.666517
0.666522
0.666527
0.666527
0.666531
0.666536
0.666541
0.666546
0.666546
0.66655
0.666555
0.66656
0.666565
0.666565
0.66657
0.666574
0.666579
0.666584
0.666584
0.666589
0.666594
0.666599
0.666603
0.666603
0.666608
0.666613
0.666618
0.666623
0.666623
0.666628
0.666633
0.666637
0.666642
0.666642
0.666647
0.666652
0.666657
0.666662
0.666662
0.666667
0.666672
0.666677
0.666682
0.666682
0.666686
0.666691
0.666696
0.666701
0.666701
0.666706
0.666711
0.666716
0.666721
0.666721
0.666726
0.666731
0.666736
0.666741
0.666741
0.666746
0.666751
0.666756
0.666761
0.666761
0.666766
0.666771
0.666776
0.666781
0.666781
0.666786
0.666791
0.666796
0.666801
0.666801
0.666806
0.666811
0.666816
0.666821
0.666821
0.666826
0.666831
0.666836
0.666841
0.666841
0.666846
0.666852
0.666857
0.666862
0.666862
0.666867
0.666872
0.666877
0.666882
0.666882
0.666887
0.666892
0.666897
0.666903
0.666903
0.666908
0.666913
0.666918
0.666923
0.666923
0.666928
0.666933
0.666939
0.666944
0.666944
0.666949
0.666954
0.666959
0.666964
0.666964
0.66697
0.666975
0.66698
0.666985
0.666985
0.666991
0.666996
0.667001
0.667006
0.667006
0.667011
0.667017
0.667022
0.667027
0.667027
0.667032
0.667038
0.667043
0.667048
0.667048
0.667053
0.667059
0.667064
0.667069
0.667069
0.667074
0.66708
0.667085
0.66709
0.66709
0.667096
0.667101
0.667106
0.667112
0.667112
0.667117
0.667122
0.667128
0.667133
0.667133
0.667138
0.667144
0.667149
0.667154
0.667154
0.66716
0.667165
0.66717
0.667176
0.667176
0.667181
0.667187
0.667192
0.667197
0.667197
0.667203
0.667208
0.667214
0.667219
0.667219
0.667224
0.66723
0.667235
0.667241
0.667241
0.667246
0.667252
0.667257
0.667262
0.667262
0.667268
0.667273
0.667279
0.667284
0.667284
0.66729
0.667295
0.667301
0.667306
0.667306
0.667312
0.667317
0.667323
0.667328
0.667328
0.667334
0.667339
0.667345
0.66735
0.66735
0.667356
0.667362
0.667367
0.667373
0.667373
0.667378
0.667384
0.667389
0.667395
0.667395
0.6674
0.667406
0.667412
0.667417
0.667417
0.667423
0.667428
0.667434
0.66744
0.66744
0.667445
0.667451
0.667456
0.667462
0.667462
0.667468
0.667473
0.667479
0.667485
0.667485
0.66749
0.667496
0.667502
0.667507
0.667507
0.667513
0.667519
0.667524
0.66753
0.66753
0.667536
0.667541
0.667547
0.667553
0.667553
0.667559
0.667564
0.66757
0.667576
0.667576
0.667581
0.667587
0.667593
0.667599
0.667599
0.667604
0.66761
0.667616
0.667622
0.667622
0.667627
0.667633
0.667639
0.667645
0.667645
0.667651
0.667656
0.667662
0.667668
0.667668
0.667674
0.66768
0.667685
0.667691
0.667691
0.667697
0.667703
0.667709
0.667715
0.667715
0.66772
0.667726
0.667732
0.667738
0.667738
0.667744
0.66775
0.667756
0.667762
0.667762
0.667767
0.667773
0.667779
0.667785
0.667785
0.667791
0.667797
0.667803
0.667809
0.667809
0.667815
0.667821
0.667827
0.667833
0.667833
0.667838
0.667844
0.66785
0.667856
0.667856
0.667862
0.667868
0.667874
0.66788
0.66788
0.667886
0.667892
0.667898
0.667904
0.667904
0.66791
0.667916
0.667922
0.667928
0.667928
0.667934
0.66794
0.667946
0.667952
0.667952
0.667958
0.667964
0.667971
0.667977
0.667977
0.667983
0.667989
0.667995
0.668001
0.668001
0.668007
0.668013
0.668019
0.668025
0.668025
0.668031
0.668037
0.668044
0.66805
0.66805
0.668056
0.668062
0.668068
0.668074
0.668074
0.66808
0.668086
0.668093
0.668099
0.668099
0.668105
0.668111
0.668117
0.668123
0.668123
0.66813
0.668136
0.668142
0.668148
0.668148
0.668154
0.668161
0.668167
0.668173
0.668173
0.668179
0.668186
0.668192
0.668198
0.668198
0.668204
0.668211
0.668217
0.668223
0.668223
0.668229
0.668236
0.668242
0.668248
0.668248
0.668254
0.668261
0.668267
0.668273
0.668273
0.66828
0.668286
0.668292
0.668299
0.668299
0.668305
0.668311
0.668318
0.668324
0.668324
0.66833
0.668337
0.668343
0.668349
0.668349
0.668356
0.668362
0.668368
0.668375
0.668375
0.668381
0.668388
0.668394
0.6684
0.6684
0.668407
0.668413
0.668419
0.668426
0.668426
0.668432
0.668439
0.668445
0.668452
0.668452
0.668458
0.668465
0.668471
0.668477
0.668477
0.668484
0.66849
0.668497
0.668503
0.668503
0.66851
0.668516
0.668523
0.668529
0.668529
0.668536
0.668542
0.668549
0.668555
0.668555
0.668562
0.668568
0.668575
0.668581
0.668581
0.668588
0.668595
0.668601
0.668608
0.668608
0.668614
0.668621
0.668627
0.668634
0.668634
0.66864
0.668647
0.668654
0.66866
0.66866
0.668667
0.668673
0.66868
0.668687
0.668687
0.668693
0.6687
0.668707
0.668713
0.668713
0.66872
0.668727
0.668733
0.66874
0.66874
0.668746
0.668753
0.66876
0.668766
0.668766
0.668773
0.66878
0.668787
0.668793
0.668793
0.6688
0.668807
0.668813
0.66882
0.66882
0.668827
0.668834
0.66884
0.668847
0.668847
0.668854
0.668861
0.668867
0.668874
0.668874
0.668881
0.668888
0.668894
0.668901
0.668901
0.668908
0.668915
0.668921
0.668928
0.668928
0.668935
0.668942
0.668949
0.668955
0.668955
0.668962
0.668969
0.668976
0.668983
0.668983
0.66899
0.668997
0.669003
0.66901
0.66901
0.669017
0.669024
0.669031
0.669038
0.669038
0.669045
0.669052
0.669058
0.669065
0.669065
0.669072
0.669079
0.669086
0.669093
0.669093
0.6691
0.669107
0.669114
0.669121
0.669121
0.669128
0.669135
0.669142
0.669148
0.669148
0.669155
0.669162
0.669169
0.669176
0.669176
0.669183
0.66919
0.669197
0.669204
0.669204
0.669211
0.669218
0.669225
0.669232
0.669232
0.669239
0.669246
0.669254
0.669261
0.669261
0.669268
0.669275
0.669282
0.669289
0.669289
0.669296
0.669303
0.66931
0.669317
0.669317
0.669324
0.669331
0.669338
0.669345
0.669345
0.669353
0.66936
0.669367
0.669374
0.669374
0.669381
0.669388
0.669395
0.669402
0.669402
0.66941
0.669417
0.669424
0.669431
0.669431
0.669438
0.669445
0.669453
0.66946
0.66946
0.669467
0.669474
0.669481
0.669489
0.669489
0.669496
0.669503
0.66951
0.669517
0.669517
0.669525
0.669532
0.669539
0.669546
0.669546
0.669554
0.669561
0.669568
0.669575
0.669575
0.669583
0.66959
0.669597
0.669605
0.669605
0.669612
0.669619
0.669626
0.669634
0.669634
0.669641
0.669648
0.669656
0.669663
0.669663
0.66967
0.669678
0.669685
0.669692
0.669692
0.6697
0.669707
0.669715
0.669722
0.669722
0.669729
0.669737
0.669744
0.669751
0.669751
0.669759
0.669766
0.669774
0.669781
0.669781
0.669788
0.669796
0.669803
0.669811
0.669811
0.669818
0.669826
0.669833
0.66984
0.66984
0.669848
0.669855
0.669863
0.66987
0.66987
0.669878
0.669885
0.669893
0.6699
0.6699
0.669908
0.669915
0.669923
0.66993
0.66993
0.669938
0.669945
0.669953
0.66996
0.66996
0.669968
0.669976
0.669983
0.669991
0.669991
0.669998
0.670006
0.670013
0.670021
0.670021
0.670028
0.670036
0.670044
0.670051
0.670051
0.670059
0.670066
0.670074
0.670082
0.670082
0.670089
0.670097
0.670105
0.670112
0.670112
0.67012
0.670128
0.670135
0.670143
0.670143
0.67015
0.670158
0.670166
0.670173
0.670173
0.670181
0.670189
0.670197
0.670204
0.670204
0.670212
0.67022
0.670227
0.670235
0.670235
0.670243
0.670251
0.670258
0.670266
0.670266
0.670274
0.670282
0.670289
0.670297
0.670297
0.670305
0.670313
0.67032
0.670328
0.670328
0.670336
0.670344
0.670352
0.670359
0.670359
0.670367
0.670375
0.670383
0.670391
0.670391
0.670399
0.670406
0.670414
0.670422
0.670422
0.67043
0.670438
0.670446
0.670454
0.670454
0.670461
0.670469
0.670477
0.670485
0.670485
0.670493
0.670501
0.670509
0.670517
0.670517
0.670525
0.670532
0.67054
0.670548
0.670548
0.670556
0.670564
0.670572
0.67058
0.67058
0.670588
0.670596
0.670604
0.670612
0.670612
0.67062
0.670628
0.670636
0.670644
0.670644
0.670652
0.67066
0.670668
0.670676
0.670676
0.670684
0.670692
0.6707
0.670708
0.670708
0.670716
0.670724
0.670732
0.67074
0.67074
0.670748
0.670756
0.670764
0.670773
0.670773
0.670781
0.670789
0.670797
0.670805
0.670805
0.670813
0.670821
0.670829
0.670837
0.670837
0.670845
0.670854
0.670862
0.67087
0.67087
0.670878
0.670886
0.670894
0.670902
0.670902
0.670911
0.670919
0.670927
0.670935
0.670935
0.670943
0.670952
0.67096
0.670968
0.670968
0.670976
0.670984
0.670993
0.671001
0.671001
0.671009
0.671017
0.671026
0.671034
0.671034
0.671042
0.67105
0.671059
0.671067
0.671067
0.671075
0.671083
0.671092
0.6711
0.6711
0.671108
0.671117
0.671125
0.671133
0.671133
0.671142
0.67115
0.671158
0.671167
0.671167
0.671175
0.671183
0.671192
0.6712
0.6712
0.671208
0.671217
0.671225
0.671233
0.671233
0.671242
0.67125
0.671259
0.671267
0.671267
0.671275
0.671284
0.671292
0.671301
0.671301
0.671309
0.671317
0.671326
0.671334
0.671334
0.671343
0.671351
0.67136
0.671368
0.671368
0.671377
0.671385
0.671394
0.671402
0.671402
0.671411
0.671419
0.671428
0.671436
0.671436
0.671445
0.671453
0.671462
0.67147
0.67147
0.671479
0.671487
0.671496
0.671504
0.671504
0.671513
0.671521
0.67153
0.671539
0.671539
0.671547
0.671556
0.671564
0.671573
0.671573
0.671581
0.67159
0.671599
0.671607
0.671607
0.671616
0.671625
0.671633
0.671642
0.671642
0.67165
0.671659
0.671668
0.671676
0.671676
0.671685
0.671694
0.671702
0.671711
0.671711
0.67172
0.671728
0.671737
0.671746
0.671746
0.671755
0.671763
0.671772
0.671781
0.671781
0.671789
0.671798
0.671807
0.671816
0.671816
0.671824
0.671833
0.671842
0.671851
0.671851
0.671859
0.671868
0.671877
0.671886
0.671886
0.671895
0.671903
0.671912
0.671921
0.671921
0.67193
0.671939
0.671947
0.671956
0.671956
0.671965
0.671974
0.671983
0.671992
0.671992
0.672
0.672009
0.672018
0.672027
0.672027
0.672036
0.672045
0.672054
0.672063
0.672063
0.672071
0.67208
0.672089
0.672098
0.672098
0.672107
0.672116
0.672125
0.672134
0.672134
0.672143
0.672152
0.672161
0.67217
0.67217
0.672179
0.672188
0.672197
0.672206
0.672206
0.672215
0.672224
0.672233
0.672242
0.672242
0.672251
0.67226
0.672269
0.672278
0.672278
0.672287
0.672296
0.672305
0.672314
0.672314
0.672323
0.672332
0.672341
0.67235
0.67235
0.672359
0.672368
0.672377
0.672386
0.672386
0.672395
0.672405
0.672414
0.672423
0.672423
0.672432
0.672441
0.67245
0.672459
0.672459
0.672468
0.672478
0.672487
0.672496
0.672496
0.672505
0.672514
0.672523
0.672533
0.672533
0.672542
0.672551
0.67256
0.672569
0.672569
0.672579
0.672588
0.672597
0.672606
0.672606
0.672615
0.672625
0.672634
0.672643
0.672643
0.672652
0.672662
0.672671
0.67268
0.67268
0.672689
0.672699
0.672708
0.672717
0.672717
0.672727
0.672736
0.672745
0.672754
0.672754
0.672764
0.672773
0.672782
0.672792
0.672792
0.672801
0.67281
0.67282
0.672829
0.672829
0.672839
0.672848
0.672857
0.672867
0.672867
0.672876
0.672885
0.672895
0.672904
0.672904
0.672914
0.672923
0.672932
0.672942
0.672942
0.672951
0.672961
0.67297
0.67298
0.67298
0.672989
0.672999
0.673008
0.673017
0.673017
0.673027
0.673036
0.673046
0.673055
0.673055
0.673065
0.673074
0.673084
0.673093
0.673093
0.673103
0.673112
0.673122
0.673131
0.673131
0.673141
0.673151
0.67316
0.67317
0.67317
0.673179
0.673189
0.673198
0.673208
0.673208
0.673217
0.673227
0.673237
0.673246
0.673246
0.673256
0.673265
0.673275
0.673285
0.673285
0.673294
0.673304
0.673314
0.673323
0.673323
0.673333
0.673343
0.673352
0.673362
0.673362
0.673372
0.673381
0.673391
0.673401
0.673401
0.67341
0.67342
0.67343
0.673439
0.673439
0.673449
0.673459
0.673469
0.673478
0.673478
0.673488
0.673498
0.673508
0.673517
0.673517
0.673527
0.673537
0.673547
0.673556
0.673556
0.673566
0.673576
0.673586
0.673596
0.673596
0.673605
0.673615
0.673625
0.673635
0.673635
0.673645
0.673654
0.673664
0.673674
0.673674
0.673684
0.673694
0.673704
0.673714
0.673714
0.673724
0.673733
0.673743
0.673753
0.673753
0.673763
0.673773
0.673783
0.673793
0.673793
0.673803
0.673813
0.673823
0.673832
0.673832
0.673842
0.673852
0.673862
0.673872
0.673872
0.673882
0.673892
0.673902
0.673912
0.673912
0.673922
0.673932
0.673942
0.673952
0.673952
0.673962
0.673972
0.673982
0.673992
0.673992
0.674002
0.674012
0.674022
0.674032
0.674032
0.674042
0.674053
0.674063
0.674073
0.674073
0.674083
0.674093
0.674103
0.674113
0.674113
0.674123
0.674133
0.674143
0.674153
0.674153
0.674164
0.674174
0.674184
0.674194
0.674194
0.674204
0.674214
0.674224
0.674235
0.674235
0.674245
0.674255
0.674265
0.674275
0.674275
0.674286
0.674296
0.674306
0.674316
0.674316
0.674326
0.674337
0.674347
0.674357
0.674357
0.674367
0.674377
0.674388
0.674398
0.674398
0.674408
0.674419
0.674429
0.674439
0.674439
0.674449
0.67446
0.67447
0.67448
0.67448
0.674491
0.674501
0.674511
0.674521
0.674521
0.674532
0.674542
0.674552
0.674563
0.674563
0.674573
0.674584
0.674594
0.674604
0.674604
0.674615
0.674625
0.674635
0.674646
0.674646
0.674656
0.674667
0.674677
0.674687
0.674687
0.674698
0.674708
0.674719
0.674729
0.674729
0.67474
0.67475
0.674761
0.674771
0.674771
0.674781
0.674792
0.674802
0.674813
0.674813
0.674823
0.674834
0.674844
0.674855
0.674855
0.674865
0.674876
0.674886
0.674897
0.674897
0.674908
0.674918
0.674929
0.674939
0.674939
0.67495
0.67496
0.674971
0.674981
0.674981
0.674992
0.675003
0.675013
0.675024
0.675024
0.675034
0.675045
0.675056
0.675066
0.675066
0.675077
0.675088
0.675098
0.675109
0.675109
0.675119
0.67513
0.675141
0.675151
0.675151
0.675162
0.675173
0.675184
0.675194
0.675194
0.675205
0.675216
0.675226
0.675237
0.675237
0.675248
0.675259
0.675269
0.67528
0.67528
0.675291
0.675301
0.675312
0.675323
0.675323
0.675334
0.675345
0.675355
0.675366
0.675366
0.675377
0.675388
0.675399
0.675409
0.675409
0.67542
0.675431
0.675442
0.675453
0.675453
0.675463
0.675474
0.675485
0.675496
0.675496
0.675507
0.675518
0.675529
0.675539
0.675539
0.67555
0.675561
0.675572
0.675583
0.675583
0.675594
0.675605
0.675616
0.675627
0.675627
0.675638
0.675649
0.67566
0.675671
0.675671
0.675681
0.675692
0.675703
0.675714
0.675714
0.675725
0.675736
0.675747
0.675758
0.675758
0.675769
0.67578
0.675791
0.675802
0.675802
0.675813
0.675824
0.675835
0.675847
0.675847
0.675858
0.675869
0.67588
0.675891
0.675891
0.675902
0.675913
0.675924
0.675935
0.675935
0.675946
0.675957
0.675968
0.67598
0.67598
0.675991
0.676002
0.676013
0.676024
0.676024
0.676035
0.676046
0.676057
0.676069
0.676069
0.67608
0.676091
0.676102
0.676113
0.676113
0.676125
0.676136
0.676147
0.676158
0.676158
0.676169
0.676181
0.676192
0.676203
0.676203
0.676214
0.676226
0.676237
0.676248
0.676248
0.676259
0.676271
0.676282
0.676293
0.676293
0.676304
0.676316
0.676327
0.676338
0.676338
0.67635
0.676361
0.676372
0.676384
0.676384
0.676395
0.676406
0.676418
0.676429
0.676429
0.67644
0.676452
0.676463
0.676475
0.676475
0.676486
0.676497
0.676509
0.67652
0.67652
0.676532
0.676543
0.676554
0.676566
0.676566
0.676577
0.676589
0.6766
0.676612
0.676612
0.676623
0.676634
0.676646
0.676657
0.676657
0.676669
0.67668
0.676692
0.676703
0.676703
0.676715
0.676726
0.676738
0.676749
0.676749
0.676761
0.676772
0.676784
0.676796
0.676796
0.676807
0.676819
0.67683
0.676842
0.676842
0.676853
0.676865
0.676876
0.676888
0.676888
0.6769
0.676911
0.676923
0.676935
0.676935
0.676946
0.676958
0.676969
0.676981
0.676981
0.676993
0.677004
0.677016
0.677028
0.677028
0.677039
0.677051
0.677063
0.677074
0.677074
0.677086
0.677098
0.67711
0.677121
0.677121
0.677133
0.677145
0.677156
0.677168
0.677168
0.67718
0.677192
0.677203
0.677215
0.677215
0.677227
0.677239
0.67725
0.677262
0.677262
0.677274
0.677286
0.677298
0.677309
0.677309
0.677321
0.677333
0.677345
0.677357
0.677357
0.677369
0.67738
0.677392
0.677404
0.677404
0.677416
0.677428
0.67744
0.677452
0.677452
0.677464
0.677475
0.677487
0.677499
0.677499
0.677511
0.677523
0.677535
0.677547
0.677547
0.677559
0.677571
0.677583
0.677595
0.677595
0.677607
0.677619
0.677631
0.677643
0.677643
0.677655
0.677667
0.677679
0.677691
0.677691
0.677703
0.677715
0.677727
0.677739
0.677739
0.677751
0.677763
0.677775
0.677787
0.677787
0.677799
0.677811
0.677823
0.677835
0.677835
0.677847
0.677859
0.677871
0.677884
0.677884
0.677896
0.677908
0.67792
0.677932
0.677932
0.677944
0.677956
0.677968
0.677981
0.677981
0.677993
0.678005
0.678017
0.678029
0.678029
0.678041
0.678054
0.678066
0.678078
0.678078
0.67809
0.678102
0.678115
0.678127
0.678127
0.678139
0.678151
0.678164
0.678176
0.678176
0.678188
0.6782
0.678213
0.678225
0.678225
0.678237
0.67825
0.678262
0.678274
0.678274
0.678286
0.678299
0.678311
0.678323
0.678323
0.678336
0.678348
0.67836
0.678373
0.678373
0.678385
0.678397
0.67841
0.678422
0.678422
0.678435
0.678447
0.678459
0.678472
0.678472
0.678484
0.678497
0.678509
0.678521
0.678521
0.678534
0.678546
0.678559
0.678571
0.678571
0.678584
0.678596
0.678609
0.678621
0.678621
0.678634
0.678646
0.678659
0.678671
0.678671
0.678684
0.678696
0.678709
0.678721
0.678721
0.678734
0.678746
0.678759
0.678771
0.678771
0.678784
0.678796
0.678809
0.678822
0.678822
0.678834
0.678847
0.678859
0.678872
0.678872
0.678884
0.678897
0.67891
0.678922
0.678922
0.678935
0.678948
0.67896
0.678973
0.678973
0.678986
0.678998
0.679011
0.679024
0.679024
0.679036
0.679049
0.679062
0.679074
0.679074
0.679087
0.6791
0.679112
0.679125
0.679125
0.679138
0.679151
0.679163
0.679176
0.679176
0.679189
0.679202
0.679214
0.679227
0.679227
0.67924
0.679253
0.679266
0.679278
0.679278
0.679291
0.679304
0.679317
0.67933
0.67933
0.679342
0.679355
0.679368
0.679381
0.679381
0.679394
0.679407
0.67942
0.679432
0.679432
0.679445
0.679458
0.679471
0.679484
0.679484
0.679497
0.67951
0.679523
0.679536
0.679536
0.679549
0.679562
0.679574
0.679587
0.679587
0.6796
0.679613
0.679626
0.679639
0.679639
0.679652
0.679665
0.679678
0.679691
0.679691
0.679704
0.679717
0.67973
0.679743
0.679743
0.679756
0.679769
0.679782
0.679796
0.679796
0.679809
0.679822
0.679835
0.679848
0.679848
0.679861
0.679874
0.679887
0.6799
0.6799
0.679913
0.679926
0.67994
0.679953
0.679953
0.679966
0.679979
0.679992
0.680005
0.680005
0.680018
0.680032
0.680045
0.680058
0.680058
0.680071
0.680084
0.680097
0.680111
0.680111
0.680124
0.680137
0.68015
0.680164
0.680164
0.680177
0.68019
0.680203
0.680217
0.680217
0.68023
0.680243
0.680256
0.68027
0.68027
0.680283
0.680296
0.68031
0.680323
0.680323
0.680336
0.68035
0.680363
0.680376
0.680376
0.68039
0.680403
0.680416
0.68043
0.68043
0.680443
0.680456
0.68047
0.680483
0.680483
0.680496
0.68051
0.680523
0.680537
0.680537
0.68055
0.680564
0.680577
0.68059
0.68059
0.680604
0.680617
0.680631
0.680644
0.680644
0.680658
0.680671
0.680685
0.680698
0.680698
0.680712
0.680725
0.680739
0.680752
0.680752
0.680766
0.680779
0.680793
0.680806
0.680806
0.68082
0.680833
0.680847
0.68086
0.68086
0.680874
0.680888
0.680901
0.680915
0.680915
0.680928
0.680942
0.680956
0.680969
0.680969
0.680983
0.680997
0.68101
0.681024
0.681024
0.681037
0.681051
0.681065
0.681078
0.681078
0.681092
0.681106
0.681119
0.681133