<?xml version="1.0"?>
<VTKFile type="UnstructuredGrid" version="0.1" byte_order="LittleEndian">
<UnstructuredGrid>
<Piece NumberOfPoints="5000" NumberOfCells="4000">
<PointData Scalars="Reaction 0">
<DataArray type="Float32" Name="Reaction 0" format="ascii">
0.705445
0.705445
0.705445
0.705445
0.705445
0.705445
0.705445
0.705445
0.705445
0.705445
0.705445
0.705445
0.705445
0.705445
0.705445
0.705445
0.705446
0.705446
0.705446
0.705446
0.705446
0.705446
0.705446
0.705446
0.705446
0.705446
0.705446
0.705446
0.705447
0.705447
0.705447
0.705447
0.705447
0.705447
0.705447
0.705447
0.705447
0.705448
0.705448
0.705448
0.705448
0.705448
0.705448
0.705449
0.705449
0.705449
0.705449
0.705449
0.705449
0.70545
0.70545
0.70545
0.70545
0.70545
0.705451
0.705451
0.705451
0.705451
0.705451
0.705452
0.705452
0.705452
0.705452
0.705453
0.705453
0.705453
0.705453
0.705453
0.705454
0.705454
0.705454
0.705454
0.705455
0.705455
0.705455
0.705455
0.705456
0.705456
0.705456
0.705457
0.705457
0.705457
0.705458
0.705458
0.705458
0.705458
0.705459
0.705459
0.70546
0.70546
0.70546
0.70546
0.705461
0.705461
0.705462
0.705462
0.705462
0.705463
0.705463
0.705464
0.705464
0.705464
0.705464
0.705465
0.705465
0.705465
0.705466
0.705466
0.705467
0.705467
0.705467
0.705468
0.705468
0.705469
0.705469
0.705469
0.70547
0.705471
0.705471
0.705472
0.705472
0.705472
0.705473
0.705473
0.705474
0.705474
0.705475
0.705475
0.705476
0.705476
0.705476
0.705477
0.705477
0.705478
0.705479
0.705479
0.705479
0.70548
0.705481
0.705481
0.705481
0.705482
0.705483
0.705483
0.705484
0.705484
0.705485
0.705485
0.705486
0.705487
0.705487
0.705487
0.705488
0.705489
0.705489
0.705489
0.70549
0.705491
0.705492
0.705492
0.705492
0.705493
0.705494
0.705495
0.705495
0.705495
0.705496
0.705497
0.705498
0.705498
0.705498
0.705499
0.7055
0.705501
0.705502
0.705502
0.705502
0.705503
0.705504
0.705505
0.705505
0.705506
0.705507
0.705507
0.705508
0.705508
0.705509
0.70551
0.705511
0.705512
0.705512
0.705513
0.705514
0.705514
0.705515
0.705515
0.705516
0.705517
0.705518
0.705519
0.705519
0.70552
0.705521
0.705522
0.705523
0.705523
0.705524
0.705525
0.705526
0.705527
0.705527
0.705528
0.705529
0.70553
0.705531
0.705531
0.705532
0.705533
0.705534
0.705535
0.705535
0.705536
0.705537
0.705538
0.705539
0.705539
0.70554
0.705541
0.705542
0.705543
0.705543
0.705544
0.705545
0.705546
0.705547
0.705547
0.705548
0.705549
0.70555
0.705552
0.705552
0.705553
0.705554
0.705555
0.705556
0.705556
0.705557
0.705558
0.705559
0.705561
0.705561
0.705562
0.705563
0.705564
0.705565
0.705565
0.705566
0.705568
0.705569
0.70557
0.70557
0.705571
0.705572
0.705574
0.705575
0.705575
0.705576
0.705577
0.705579
0.70558
0.70558
0.705581
0.705582
0.705584
0.705585
0.705585
0.705586
0.705587
0.705589
0.70559
0.70559
0.705591
0.705593
0.705594
0.705595
0.705595
0.705597
0.705598
0.705599
0.705601
0.705601
0.705602
0.705603
0.705605
0.705606
0.705606
0.705607
0.705609
0.70561
0.705611
0.705611
0.705613
0.705614
0.705616
0.705617
0.705617
0.705618
0.70562
0.705621
0.705623
0.705623
0.705624
0.705626
0.705627
0.705629
0.705629
0.70563
0.705631
0.705633
0.705634
0.705634
0.705636
0.705637
0.705639
0.70564
0.70564
0.705642
0.705643
0.705645
0.705646
0.705646
0.705648
0.70565
0.705651
0.705653
0.705653
0.705654
0.705656
0.705657
0.705659
0.705659
0.70566
0.705662
0.705664
0.705665
0.705665
0.705667
0.705668
0.70567
0.705672
0.705672
0.705673
0.705675
0.705676
0.705678
0.705678
0.70568
0.705681
0.705683
0.705685
0.705685
0.705686
0.705688
0.70569
0.705691
0.705691
0.705693
0.705695
0.705697
0.705698
0.705698
0.7057
0.705702
0.705703
0.705705
0.705705
0.705707
0.705709
0.70571
0.705712
0.705712
0.705714
0.705716
0.705717
0.705719
0.705719
0.705721
0.705723
0.705725
0.705726
0.705726
0.705728
0.70573
0.705732
0.705734
0.705734
0.705735
0.705737
0.705739
0.705741
0.705741
0.705743
0.705745
0.705747
0.705748
0.705748
0.70575
0.705752
0.705754
0.705756
0.705756
0.705758
0.70576
0.705762
0.705764
0.705764
0.705766
0.705767
0.705769
0.705771
0.705771
0.705773
0.705775
0.705777
0.705779
0.705779
0.705781
0.705783
0.705785
0.705787
0.705787
0.705789
0.705791
0.705793
0.705795
0.705795
0.705797
0.705799
0.705801
0.705803
0.705803
0.705805
0.705807
0.705809
0.705811
0.705811
0.705813
0.705816
0.705818
0.70582
0.70582
0.705822
0.705824
0.705826
0.705828
0.705828
0.70583
0.705832
0.705834
0.705837
0.705837
0.705839
0.705841
0.705843
0.705845
0.705845
0.705847
0.705849
0.705852
0.705854
0.705854
0.705856
0.705858
0.70586
0.705863
0.705863
0.705865
0.705867
0.705869
0.705871
0.705871
0.705874
0.705876
0.705878
0.70588
0.70588
0.705883
0.705885
0.705887
0.705889
0.705889
0.705892
0.705894
0.705896
0.705898
0.705898
0.705901
0.705903
0.705905
0.705908
0.705908
0.70591
0.705912
0.705915
0.705917
0.705917
0.705919
0.705922
0.705924
0.705926
0.705926
0.705929
0.705931
0.705933
0.705936
0.705936
0.705938
0.705941
0.705943
0.705945
0.705945
0.705948
0.70595
0.705953
0.705955
0.705955
0.705958
0.70596
0.705962
0.705965
0.705965
0.705967
0.70597
0.705972
0.705975
0.705975
0.705977
0.70598
0.705982
0.705985
0.705985
0.705987
0.70599
0.705992
0.705995
0.705995
0.705997
0.706
0.706002
0.706005
0.706005
0.706007
0.70601
0.706013
0.706015
0.706015
0.706018
0.70602
0.706023
0.706026
0.706026
0.706028
0.706031
0.706033
0.706036
0.706036
0.706039
0.706041
0.706044
0.706046
0.706046
0.706049
0.706052
0.706054
0.706057
0.706057
0.70606
0.706062
0.706065
0.706068
0.706068
0.70607
0.706073
0.706076
0.706079
0.706079
0.706081
0.706084
0.706087
0.706089
0.706089
0.706092
0.706095
0.706098
0.7061
0.7061
0.706103
0.706106
0.706109
0.706112
0.706112
0.706114
0.706117
0.70612
0.706123
0.706123
0.706126
0.706128
0.706131
0.706134
0.706134
0.706137
0.70614
0.706142
0.706145
0.706145
0.706148
0.706151
0.706154
0.706157
0.706157
0.70616
0.706163
0.706165
0.706168
0.706168
0.706171
0.706174
0.706177
0.70618
0.70618
0.706183
0.706186
0.706189
0.706192
0.706192
0.706195
0.706198
0.706201
0.706204
0.706204
0.706206
0.706209
0.706212
0.706215
0.706215
0.706218
0.706221
0.706224
0.706227
0.706227
0.70623
0.706233
0.706237
0.70624
0.70624
0.706243
0.706246
0.706249
0.706252
0.706252
0.706255
0.706258
0.706261
0.706264
0.706264
0.706267
0.70627
0.706273
0.706276
0.706276
0.70628
0.706283
0.706286
0.706289
0.706289
0.706292
0.706295
0.706298
0.706301
0.706301
0.706305
0.706308
0.706311
0.706314
0.706314
0.706317
0.70632
0.706324
0.706327
0.706327
0.70633
0.706333
0.706337
0.70634
0.70634
0.706343
0.706346
0.706349
0.706353
0.706353
0.706356
0.706359
0.706362
0.706366
0.706366
0.706369
0.706372
0.706376
0.706379
0.706379
0.706382
0.706385
0.706389
0.706392
0.706392
0.706395
0.706399
0.706402
0.706405
0.706405
0.706409
0.706412
0.706415
0.706419
0.706419
0.706422
0.706426
0.706429
0.706432
0.706432
0.706436
0.706439
0.706443
0.706446
0.706446
0.706449
0.706453
0.706456
0.70646
0.70646
0.706463
0.706466
0.70647
0.706473
0.706473
0.706477
0.70648
0.706484
0.706487
0.706487
0.706491
0.706494
0.706498
0.706501
0.706501
0.706505
0.706508
0.706512
0.706515
0.706515
0.706519
0.706522
0.706526
0.70653
0.70653
0.706533
0.706537
0.70654
0.706544
0.706544
0.706547
0.706551
0.706555
0.706558
0.706558
0.706562
0.706565
0.706569
0.706573
0.706573
0.706576
0.70658
0.706583
0.706587
0.706587
0.706591
0.706594
0.706598
0.706602
0.706602
0.706605
0.706609
0.706613
0.706616
0.706616
0.70662
0.706624
0.706628
0.706631
0.706631
0.706635
0.706639
0.706642
0.706646
0.706646
0.70665
0.706654
0.706657
0.706661
0.706661
0.706665
0.706669
0.706672
0.706676
0.706676
0.70668
0.706684
0.706688
0.706691
0.706691
0.706695
0.706699
0.706703
0.706707
0.706707
0.706711
0.706714
0.706718
0.706722
0.706722
0.706726
0.70673
0.706734
0.706738
0.706738
0.706742
0.706745
0.706749
0.706753
0.706753
0.706757
0.706761
0.706765
0.706769
0.706769
0.706773
0.706777
0.706781
0.706785
0.706785
0.706789
0.706793
0.706797
0.706801
0.706801
0.706804
0.706808
0.706812
0.706816
0.706816
0.70682
0.706824
0.706828
0.706832
0.706832
0.706837
0.706841
0.706845
0.706849
0.706849
0.706853
0.706857
0.706861
0.706865
0.706865
0.706869
0.706873
0.706877
0.706881
0.706881
0.706885
0.706889
0.706893
0.706898
0.706898
0.706902
0.706906
0.70691
0.706914
0.706914
0.706918
0.706922
0.706927
0.706931
0.706931
0.706935
0.706939
0.706943
0.706947
0.706947
0.706952
0.706956
0.70696
0.706964
0.706964
0.706968
0.706973
0.706977
0.706981
0.706981
0.706985
0.70699
0.706994
0.706998
0.706998
0.707002
0.707007
0.707011
0.707015
0.707015
0.707019
0.707024
0.707028
0.707032
0.707032
0.707037
0.707041
0.707045
0.70705
0.70705
0.707054
0.707058
0.707063
0.707067
0.707067
0.707071
0.707076
0.70708
0.707084
0.707084
0.707089
0.707093
0.707098
0.707102
0.707102
0.707106
0.707111
0.707115
0.70712
0.70712
0.707124
0.707128
0.707133
0.707137
0.707137
0.707142
0.707146
0.707151
0.707155
0.707155
0.70716
0.707164
0.707169
0.707173
0.707173
0.707178
0.707182
0.707187
0.707191
0.707191
0.707196
0.7072
0.707205
0.707209
0.707209
0.707214
0.707218
0.707223
0.707227
0.707227
0.707232
0.707237
0.707241
0.707246
0.707246
0.70725
0.707255
0.70726
0.707264
0.707264
0.707269
0.707273
0.707278
0.707283
0.707283
0.707287
0.707292
0.707297
0.707301
0.707301
0.707306
0.707311
0.707315
0.70732
0.70732
0.707325
0.707329
0.707334
0.707339
0.707339
0.707343
0.707348
0.707353
0.707358
0.707358
0.707362
0.707367
0.707372
0.707377
0.707377
0.707381
0.707386
0.707391
0.707396
0.707396
0.7074
0.707405
0.70741
0.707415
0.707415
0.70742
0.707424
0.707429
0.707434
0.707434
0.707439
0.707444
0.707449
0.707453
0.707453
0.707458
0.707463
0.707468
0.707473
0.707473
0.707478
0.707483
0.707487
0.707492
0.707492
0.707497
0.707502
0.707507
0.707512
0.707512
0.707517
0.707522
0.707527
0.707532
0.707532
0.707537
0.707542
0.707547
0.707552
0.707552
0.707557
0.707562
0.707567
0.707571
0.707571
0.707576
0.707581
0.707586
0.707592
0.707592
0.707597
0.707602
0.707607
0.707612
0.707612
0.707617
0.707622
0.707627
0.707632
0.707632
0.707637
0.707642
0.707647
0.707652
0.707652
0.707657
0.707662
0.707667
0.707672
0.707672
0.707678
0.707683
0.707688
0.707693
0.707693
0.707698
0.707703
0.707708
0.707714
0.707714
0.707719
0.707724
0.707729
0.707734
0.707734
0.707739
0.707745
0.70775
0.707755
0.707755
0.70776
0.707765
0.707771
0.707776
0.707776
0.707781
0.707786
0.707792
0.707797
0.707797
0.707802
0.707807
0.707813
0.707818
0.707818
0.707823
0.707829
0.707834
0.707839
0.707839
0.707844
0.70785
0.707855
0.70786
0.70786
0.707866
0.707871
0.707876
0.707882
0.707882
0.707887
0.707892
0.707898
0.707903
0.707903
0.707908
0.707914
0.707919
0.707925
0.707925
0.70793
0.707935
0.707941
0.707946
0.707946
0.707952
0.707957
0.707963
0.707968
0.707968
0.707973
0.707979
0.707984
0.70799
0.70799
0.707995
0.708001
0.708006
0.708012
0.708012
0.708017
0.708023
0.708028
0.708034
0.708034
0.708039
0.708045
0.70805
0.708056
0.708056
0.708061
0.708067
0.708073
0.708078
0.708078
0.708084
0.708089
0.708095
0.7081
0.7081
0.708106
0.708112
0.708117
0.708123
0.708123
0.708128
0.708134
0.70814
0.708145
0.708145
0.708151
0.708157
0.708162
0.708168
0.708168
0.708174
0.708179
0.708185
0.708191
0.708191
0.708196
0.708202
0.708208
0.708213
0.708213
0.708219
0.708225
0.708231
0.708236
0.708236
0.708242
0.708248
0.708253
0.708259
0.708259
0.708265
0.708271
0.708276
0.708282
0.708282
0.708288
0.708294
0.7083
0.708305
0.708305
0.708311
0.708317
0.708323
0.708329
0.708329
0.708334
0.70834
0.708346
0.708352
0.708352
0.708358
0.708364
0.70837
0.708375
0.708375
0.708381
0.708387
0.708393
0.708399
0.708399
0.708405
0.708411
0.708417
0.708423
0.708423
0.708429
0.708435
0.70844
0.708446
0.708446
0.708452
0.708458
0.708464
0.70847
0.70847
0.708476
0.708482
0.708488
0.708494
0.708494
0.7085
0.708506
0.708512
0.708518
0.708518
0.708524
0.70853
0.708536
0.708542
0.708542
0.708548
0.708554
0.70856
0.708567
0.708567
0.708573
0.708579
0.708585
0.708591
0.708591
0.708597
0.708603
0.708609
0.708615
0.708615
0.708621
0.708628
0.708634
0.70864
0.70864
0.708646
0.708652
0.708658
0.708664
0.708664
0.708671
0.708677
0.708683
0.708689
0.708689
0.708695
0.708701
0.708708
0.708714
0.708714
0.70872
0.708726
0.708733
0.708739
0.708739
0.708745
0.708751
0.708758
0.708764
0.708764
0.70877
0.708776
0.708783
0.708789
0.708789
0.708795
0.708801
0.708808
0.708814
0.708814
0.70882
0.708827
0.708833
0.708839
0.708839
0.708846
0.708852
0.708858
0.708865
0.708865
0.708871
0.708877
0.708884
0.70889
0.70889
0.708897
0.708903
0.708909
0.708916
0.708916
0.708922
0.708929
0.708935
0.708941
0.708941
0.708948
0.708954
0.708961
0.708967
0.708967
0.708974
0.70898
0.708987
0.708993
0.708993
0.709
0.709006
0.709013
0.709019
0.709019
0.709026
0.709032
0.709039
0.709045
0.709045
0.709052
0.709058
0.709065
0.709071
0.709071
0.709078
0.709084
0.709091
0.709097
0.709097
0.709104
0.709111
0.709117
0.709124
0.709124
0.70913
0.709137
0.709144
0.70915
0.70915
0.709157
0.709163
0.70917
0.709177
0.709177
0.709183
0.70919
0.709197
0.709203
0.709203
0.70921
0.709217
0.709223
0.70923
0.70923
0.709237
0.709244
0.70925
0.709257
0.709257
0.709264
0.70927
0.709277
0.709284
0.709284
0.709291
0.709297
0.709304
0.709311
0.709311
0.709318
0.709324
0.709331
0.709338
0.709338
0.709345
0.709352
0.709358
0.709365
0.709365
0.709372
0.709379
0.709386
0.709393
0.709393
0.709399
0.709406
0.709413
0.70942
0.70942
0.709427
0.709434
0.709441
0.709448
0.709448
0.709454
0.709461
0.709468
0.709475
0.709475
0.709482
0.709489
0.709496
0.709503
0.709503
0.70951
0.709517
0.709524
0.709531
0.709531
0.709538
0.709545
0.709552
0.709559
0.709559
0.709566
0.709572
0.709579
0.709586
0.709586
0.709594
0.709601
0.709608
0.709615
0.709615
0.709622
0.709629
0.709636
0.709643
0.709643
0.70965
0.709657
0.709664
0.709671
0.709671
0.709678
0.709685
0.709692
0.709699
0.709699
0.709707
0.709714
0.709721
0.709728
0.709728
0.709735
0.709742
0.709749
0.709757
0.709757
0.709764
0.709771
0.709778
0.709785
0.709785
0.709792
0.7098
0.709807
0.709814
0.709814
0.709821
0.709828
0.709836
0.709843
0.709843
0.70985
0.709857
0.709865
0.709872
0.709872
0.709879
0.709886
0.709894
0.709901
0.709901
0.709908
0.709915
0.709923
0.70993
0.70993
0.709937
0.709945
0.709952
0.709959
0.709959
0.709967
0.709974
0.709981
0.709989
0.709989
0.709996
0.710003
0.710011
0.710018
0.710018
0.710026
0.710033
0.71004
0.710048
0.710048
0.710055
0.710063
0.71007
0.710077
0.710077
0.710085
0.710092
0.7101
0.710107
0.710107
0.710115
0.710122
0.71013
0.710137
0.710137
0.710144
0.710152
0.710159
0.710167
0.710167
0.710174
0.710182
0.710189
0.710197
0.710197
0.710205
0.710212
0.71022
0.710227
0.710227
0.710235
0.710242
0.71025
0.710257
0.710257
0.710265
0.710273
0.71028
0.710288
0.710288
0.710295
0.710303
0.710311
0.710318
0.710318
0.710326
0.710333
0.710341
0.710349
0.710349
0.710356
0.710364
0.710372
0.710379
0.710379
0.710387
0.710395
0.710402
0.71041
0.71041
0.710418
0.710425
0.710433
0.710441
0.710441
0.710449
0.710456
0.710464
0.710472
0.710472
0.71048
0.710487
0.710495
0.710503
0.710503
0.710511
0.710518
0.710526
0.710534
0.710534
0.710542
0.71055
0.710557
0.710565
0.710565
0.710573
0.710581
0.710589
0.710597
0.710597
0.710604
0.710612
0.71062
0.710628
0.710628
0.710636
0.710644
0.710652
0.71066
0.71066
0.710667
0.710675
0.710683
0.710691
0.710691
0.710699
0.710707
0.710715
0.710723
0.710723
0.710731
0.710739
0.710747
0.710755
0.710755
0.710763
0.710771
0.710779
0.710787
0.710787
0.710795
0.710803
0.710811
0.710819
0.710819
0.710827
0.710835
0.710843
0.710851
0.710851
0.710859
0.710867
0.710875
0.710883
0.710883
0.710891
0.710899
0.710907
0.710915
0.710915
0.710923
0.710931
0.71094
0.710948
0.710948
0.710956
0.710964
0.710972
0.71098
0.71098
0.710988
0.710997
0.711005
0.711013
0.711013
0.711021
0.711029
0.711037
0.711046
0.711046
0.711054
0.711062
0.71107
0.711078
0.711078
0.711087
0.711095
0.711103
0.711111
0.711111
0.711119
0.711128
0.711136
0.711144
0.711144
0.711153
0.711161
0.711169
0.711177
0.711177
0.711186
0.711194
0.711202
0.711211
0.711211
0.711219
0.711227
0.711236
0.711244
0.711244
0.711252
0.711261
0.711269
0.711277
0.711277
0.711286
0.711294
0.711302
0.711311
0.711311
0.711319
0.711328
0.711336
0.711344
0.711344
0.711353
0.711361
0.71137
0.711378
0.711378
0.711387
0.711395
0.711403
0.711412
0.711412
0.71142
0.711429
0.711437
0.711446
0.711446
0.711454
0.711463
0.711471
0.71148
0.71148
0.711488
0.711497
0.711505
0.711514
0.711514
0.711523
0.711531
0.71154
0.711548
0.711548
0.711557
0.711565
0.711574
0.711582
0.711582
0.711591
0.7116
0.711608
0.711617
0.711617
0.711625
0.711634
0.711643
0.711651
0.711651
0.71166
0.711669
0.711677
0.711686
0.711686
0.711695
0.711703
0.711712
0.711721
0.711721
0.711729
0.711738
0.711747
0.711755
0.711755
0.711764
0.711773
0.711782
0.71179
0.71179
0.711799
0.711808
0.711817
0.711825
0.711825
0.711834
0.711843
0.711852
0.711861
0.711861
0.711869
0.711878
0.711887
0.711896
0.711896
0.711905
0.711913
0.711922
0.711931
0.711931
0.71194
0.711949
0.711958
0.711966
0.711966
0.711975
0.711984
0.711993
0.712002
0.712002
0.712011
0.71202
0.712029
0.712038
0.712038
0.712046
0.712055
0.712064
0.712073
0.712073
0.712082
0.712091
0.7121
0.712109
0.712109
0.712118
0.712127
0.712136
0.712145
0.712145
0.712154
0.712163
0.712172
0.712181
0.712181
0.71219
0.712199
0.712208
0.712217
0.712217
0.712226
0.712235
0.712244
0.712253
0.712253
0.712262
0.712271
0.71228
0.71229
0.71229
0.712299
0.712308
0.712317
0.712326
0.712326
0.712335
0.712344
0.712353
0.712363
0.712363
0.712372
0.712381
0.71239
0.712399
0.712399
0.712408
0.712417
0.712427
0.712436
0.712436
0.712445
0.712454
0.712463
0.712473
0.712473
0.712482
0.712491
0.7125
0.71251
0.71251
0.712519
0.712528
0.712537
0.712547
0.712547
0.712556
0.712565
0.712574
0.712584
0.712584
0.712593
0.712602
0.712612
0.712621
0.712621
0.71263
0.71264
0.712649
0.712658
0.712658
0.712668
0.712677
0.712686
0.712696
0.712696
0.712705
0.712714
0.712724
0.712733
0.712733
0.712743
0.712752
0.712761
0.712771
0.712771
0.71278
0.71279
0.712799
0.712808
0.712808
0.712818
0.712827
0.712837
0.712846
0.712846
0.712856
0.712865
0.712875
0.712884
0.712884
0.712894
0.712903
0.712913
0.712922
0.712922
0.712932
0.712941
0.712951
0.71296
0.71296
0.71297
0.712979
0.712989
0.712999
0.712999
0.713008
0.713018
0.713027
0.713037
0.713037
0.713047
0.713056
0.713066
0.713075
0.713075
0.713085
0.713095
0.713104
0.713114
0.713114
0.713124
0.713133
0.713143
0.713152
0.713152
0.713162
0.713172
0.713182
0.713191
0.713191
0.713201
0.713211
0.71322
0.71323
0.71323
0.71324
0.71325
0.713259
0.713269
0.713269
0.713279
0.713289
0.713298
0.713308
0.713308
0.713318
0.713328
0.713337
0.713347
0.713347
0.713357
0.713367
0.713377
0.713386
0.713386
0.713396
0.713406
0.713416
0.713426
0.713426
0.713436
0.713446
0.713455
0.713465
0.713465
0.713475
0.713485
0.713495
0.713505
0.713505
0.713515
0.713525
0.713535
0.713544
0.713544
0.713554
0.713564
0.713574
0.713584
0.713584
0.713594
0.713604
0.713614
0.713624
0.713624
0.713634
0.713644
0.713654
0.713664
0.713664
0.713674
0.713684
0.713694
0.713704
0.713704
0.713714
0.713724
0.713734
0.713744
0.713744
0.713754
0.713764
0.713774
0.713784
0.713784
0.713795
0.713805
0.713815
0.713825
0.713825
0.713835
0.713845
0.713855
0.713865
0.713865
0.713875
0.713886
0.713896
0.713906
0.713906
0.713916
0.713926
0.713936
0.713947
0.713947
0.713957
0.713967
0.713977
0.713987
0.713987
0.713998
0.714008
0.714018
0.714028
0.714028
0.714038
0.714049
0.714059
0.714069
0.714069
0.714079
0.71409
0.7141
0.71411
0.71411
0.714121
0.714131
0.714141
0.714151
0.714151
0.714162
0.714172
0.714182
0.714193
0.714193
0.714203
0.714213
0.714224
0.714234
0.714234
0.714245
0.714255
0.714265
0.714276
0.714276
0.714286
0.714296
0.714307
0.714317
0.714317
0.714328
0.714338
0.714349
0.714359
0.714359
0.714369
0.71438
0.71439
0.714401
0.714401
0.714411
0.714422
0.714432
0.714443
0.714443
0.714453
0.714464
0.714474
0.714485
0.714485
0.714495
0.714506
0.714516
0.714527
0.714527
0.714537
0.714548
0.714558
0.714569
0.714569
0.71458
0.71459
0.714601
0.714611
0.714611
0.714622
0.714633
0.714643
0.714654
0.714654
0.714664
0.714675
0.714686
0.714696
0.714696
0.714707
0.714718
0.714728
0.714739
0.714739
0.71475
0.71476
0.714771
0.714782
0.714782
0.714792
0.714803
0.714814
0.714824
0.714824
0.714835
0.714846
0.714857
0.714867
0.714867
0.714878
0.714889
0.7149
0.71491
0.71491
0.714921
0.714932
0.714943
0.714954
0.714954
0.714964
0.714975
0.714986
0.714997
0.714997
0.715008
0.715019
0.715029
0.71504
0.71504
0.715051
0.715062
0.715073
0.715084
0.715084
0.715095
0.715105
0.715116
0.715127
0.715127
0.715138
0.715149
0.71516
0.715171
0.715171
0.715182
0.715193
0.715204
0.715215
0.715215
0.715226
0.715237
0.715248
0.715259
0.715259
0.71527
0.715281
0.715292
0.715303
0.715303
0.715314
0.715325
0.715336
0.715347
0.715347
0.715358
0.715369
0.71538
0.715391
0.715391
0.715402
0.715413
0.715424
0.715435
0.715435
0.715446
0.715457
0.715468
0.715479
0.715479
0.715491
0.715502
0.715513
0.715524
0.715524
0.715535
0.715546
0.715557
0.715569
0.715569
0.71558
0.715591
0.715602
0.715613
0.715613
0.715624
0.715636
0.715647
0.715658
0.715658
0.715669
0.715681
0.715692
0.715703
0.715703
0.715714
0.715726
0.715737
0.715748
0.715748
0.715759
0.715771
0.715782
0.715793
0.715793
0.715804
0.715816
0.715827
0.715838
0.715838
0.71585
0.715861
0.715872
0.715884
0.715884
0.715895
0.715906
0.715918
0.715929
0.715929
0.715941
0.715952
0.715963
0.715975
0.715975
0.715986
0.715998
0.716009
0.71602
0.71602
0.716032
0.716043
0.716055
0.716066
0.716066
0.716078
0.716089
0.7161
0.716112
0.716112
0.716123
0.716135
0.716146
0.716158
0.716158
0.716169
0.716181
0.716193
0.716204
0.716204
0.716216
0.716227
0.716239
0.71625
0.71625
0.716262
0.716273
0.716285
0.716296
0.716296
0.716308
0.71632
0.716331
0.716343
0.716343
0.716354
0.716366
0.716378
0.716389
0.716389
0.716401
0.716413
0.716424
0.716436
0.716436
0.716448
0.716459
0.716471
0.716483
0.716483
0.716494
0.716506
0.716518
0.716529
0.716529
0.716541
0.716553
0.716565
0.716576
0.716576
0.716588
0.7166
0.716612
0.716623
0.716623
0.716635
0.716647
0.716659
0.716671
0.716671
0.716682
0.716694
0.716706
0.716718
0.716718
0.71673
0.716741
0.716753
0.716765
0.716765
0.716777
0.716789
0.716801
0.716812
0.716812
0.716824
0.716836
0.716848
0.71686
0.71686
0.716872
0.716884
0.716896
0.716908
0.716908
0.71692
0.716932
0.716944
0.716955
0.716955
0.716967
0.716979
0.716991
0.717003
0.717003
0.717015
0.717027
0.717039
0.717051
0.717051
0.717063
0.717075
0.717087
0.717099
0.717099
0.717111
0.717123
0.717136
0.717148
0.717148
0.71716
0.717172
0.717184
0.717196
0.717196
0.717208
0.71722
0.717232
0.717244
0.717244
0.717256
0.717268
0.717281
0.717293
0.717293
0.717305
0.717317
0.717329
0.717341
0.717341
0.717354
0.717366
0.717378
0.71739
0.71739
0.717402
0.717414
0.717427
0.717439
0.717439
0.717451
0.717463
0.717476
0.717488
0.717488
0.7175
0.717512
0.717525
0.717537
0.717537
0.717549
0.717561
0.717574
0.717586
0.717586
0.717598
0.717611
0.717623
0.717635
0.717635
0.717648
0.71766
0.717672
0.717685
0.717685
0.717697
0.717709
0.717722
0.717734
0.717734
0.717746
0.717759
0.717771
0.717784
0.717784
0.717796
0.717808
0.717821
0.717833
0.717833
0.717846
0.717858
0.717871
0.717883
0.717883
0.717895
0.717908
0.71792
0.717933
0.717933
0.717945
0.717958
0.71797
0.717983
0.717983
0.717995
0.718008
0.71802
0.718033
0.718033
0.718046
0.718058
0.718071
0.718083
0.718083
0.718096
0.718108
0.718121
0.718134
0.718134
0.718146
0.718159
0.718171
0.718184
0.718184
0.718197
0.718209
0.718222
0.718234
0.718234
0.718247
0.71826
0.718272
0.718285
0.718285
0.718298
0.71831
0.718323
0.718336
0.718336
0.718349
0.718361
0.718374
0.718387
0.718387
0.718399
0.718412
0.718425
0.718438
0.718438
0.71845
0.718463
0.718476
0.718489
0.718489
0.718502
0.718514
0.718527
0.71854
0.71854
0.718553
0.718566
0.718578
0.718591
0.718591
0.718604
0.718617
0.71863
0.718643
0.718643
0.718655
0.718668
0.718681
0.718694
0.718694
0.718707
0.71872
0.718733
0.718746
0.718746
0.718759
0.718772
0.718784
0.718797
0.718797
0.71881
0.718823
0.718836
0.718849
0.718849
0.718862
0.718875
0.718888
0.718901
0.718901
0.718914
0.718927
0.71894
0.718953
0.718953
0.718966
0.718979
0.718992
0.719005
0.719005
0.719018
0.719031
0.719044
0.719058
0.719058
0.719071
0.719084
0.719097
0.71911
0.71911
0.719123
0.719136
0.719149
0.719162
0.719162
0.719176
0.719189
0.719202
0.719215
0.719215
0.719228
0.719241
0.719254
0.719268
0.719268
0.719281
0.719294
0.719307
0.71932
0.71932
0.719334
0.719347
0.71936
0.719373
0.719373
0.719387
0.7194
0.719413
0.719426
0.719426
0.71944
0.719453
0.719466
0.719479
0.719479
0.719493
0.719506
0.719519
0.719533
0.719533
0.719546
0.719559
0.719573
0.719586
0.719586
0.719599
0.719613
0.719626
0.719639
0.719639
0.719653
0.719666
0.71968
0.719693
0.719693
0.719706
0.71972
0.719733
0.719747
0.719747
0.71976
0.719774
0.719787
0.7198
0.7198
0.719814
0.719827
0.719841
0.719854
0.719854
0.719868
0.719881
0.719895
0.719908
0.719908
0.719922
0.719935
0.719949
0.719962
0.719962
0.719976
0.71999
0.720003
0.720017
0.720017
0.72003
0.720044
0.720057
0.720071
0.720071
0.720085
0.720098
0.720112
0.720125
0.720125
0.720139
0.720153
0.720166
0.72018
0.72018
0.720194
0.720207
0.720221
0.720235
0.720235
0.720248
0.720262
0.720276
0.720289
0.720289
0.720303
0.720317
0.72033
0.720344
0.720344
0.720358
0.720372
0.720385
0.720399
0.720399
0.720413
0.720427
0.72044
0.720454
0.720454
0.720468
0.720482
0.720496
0.720509
0.720509
0.720523
0.720537
0.720551
0.720565
0.720565
0.720579
0.720592
0.720606
0.72062
0.72062
0.720634
0.720648
0.720662
0.720676
0.720676
0.72069
0.720703
0.720717
0.720731
0.720731
0.720745
0.720759
0.720773
0.720787
0.720787
0.720801
0.720815
0.720829
0.720843
0.720843
0.720857
0.720871
0.720885
0.720899
0.720899
0.720913
0.720927
0.720941
0.720955
0.720955
0.720969
0.720983
0.720997
0.721011
0.721011
0.721025
0.721039
0.721053
0.721067
0.721067
0.721082
0.721096
0.72111
0.721124
0.721124
0.721138
0.721152
0.721166
0.72118
0.72118
0.721194
0.721209
0.721223
0.721237
0.721237
0.721251
0.721265
0.721279
0.721294
0.721294
0.721308
0.721322
0.721336
0.721351
0.721351
0.721365
0.721379
0.721393
0.721408
0.721408
0.721422
0.721436
0.72145
0.721465
0.721465
0.721479
0.721493
0.721507
0.721522
0.721522
0.721536
0.72155
0.721565
0.721579
0.721579
0.721593
0.721608
0.721622
0.721636
0.721636
0.721651
0.721665
0.72168
0.721694
0.721694
0.721708
0.721723
0.721737
0.721752
0.721752
0.721766
0.72178
0.721795
0.721809
0.721809
0.721824
0.721838
0.721853
0.721867
0.721867
0.721882
0.721896
0.721911
0.721925
0.721925
0.72194
0.721954
0.721969
0.721983
0.721983
0.721998
0.722012
0.722027
0.722041
0.722041
0.722056
0.72207
0.722085
0.7221
0.7221
0.722114
0.722129
0.722143
0.722158
0.722158
0.722173
0.722187
0.722202
0.722217
0.722217
0.722231
0.722246
0.722261
0.722275
0.722275
0.72229
0.722305
0.722319
0.722334
0.722334
0.722349
0.722363
0.722378
0.722393
0.722393
0.722407
0.722422
0.722437
0.722452
0.722452
0.722466
0.722481
0.722496
0.722511
0.722511
0.722526
0.72254
0.722555
0.72257
0.72257
0.722585
0.7226
0.722614
0.722629
0.722629
0.722644
0.722659
0.722674
0.722689
0.722689
0.722704
0.722718
0.722733
0.722748
0.722748
0.722763
0.722778
0.722793
0.722808
0.722808
0.722823
0.722838
0.722853
0.722868
0.722868
0.722883
0.722897
0.722912
0.722927
0.722927
0.722942
0.722957
0.722972
0.722987
0.722987
0.723002
0.723017
0.723032
0.723048
0.723048
0.723063
0.723078
0.723093
0.723108
0.723108
0.723123
0.723138
0.723153
0.723168
0.723168
0.723183
0.723198
0.723213
0.723228
0.723228
0.723244
0.723259
0.723274
0.723289
0.723289
0.723304
0.723319
0.723334
0.72335
0.72335
0.723365
0.72338
0.723395
0.72341
0.72341
0.723426
0.723441
0.723456
0.723471
0.723471
0.723486
0.723502
0.723517
0.723532
0.723532
0.723547
0.723563
0.723578
0.723593
0.723593
0.723609
0.723624
0.723639
0.723654
0.723654
0.72367
0.723685
0.7237
0.723716
0.723716
0.723731
0.723747
0.723762
0.723777
0.723777
0.723793
0.723808
0.723823
0.723839
0.723839
0.723854
0.72387
0.723885
0.7239
0.7239
0.723916
0.723931
0.723947
0.723962
0.723962
0.723978
0.723993
0.724009
0.724024
0.724024
0.72404
0.724055
0.724071
0.724086
0.724086
0.724102
0.724117
0.724133
0.724148
0.724148
0.724164
0.724179
0.724195
0.72421
0.72421
0.724226
0.724242
0.724257
0.724273
0.724273
0.724288
0.724304
0.72432
0.724335
0.724335
0.724351
0.724367
0.724382
0.724398
0.724398
0.724413
0.724429
0.724445
0.724461
0.724461
0.724476
0.724492
0.724508
0.724523
0.724523
0.724539
0.724555
0.72457
0.724586
0.724586
0.724602
0.724618
0.724633
0.724649
0.724649
0.724665
0.724681
0.724697
0.724712
0.724712
0.724728
0.724744
0.72476
0.724776
0.724776
0.724791
0.724807
0.724823
0.724839
0.724839
0.724855
0.724871
0.724887
0.724902
0.724902
0.724918
0.724934
0.72495
0.724966
0.724966
0.724982
0.724998
0.725014
0.72503
0.72503
0.725046
0.725062
0.725078
0.725094
0.725094
0.72511
0.725126
0.725142
0.725158
0.725158
0.725174
0.72519
0.725206
0.725222
0.725222
0.725238
0.725254
0.72527
0.725286
0.725286
0.725302
0.725318
0.725334
0.72535
0.72535
0.725366
0.725382
0.725398
0.725414
0.725414
0.725431
0.725447
0.725463
0.725479
0.725479
0.725495
0.725511
0.725527
0.725544
0.725544
0.72556
0.725576
0.725592
0.725608
0.725608
0.725625
0.725641
0.725657
0.725673
0.725673
0.725689
0.725706
0.725722
0.725738
0.725738
0.725754
0.725771
0.725787
0.725803
0.725803
0.72582
0.725836
0.725852
0.725868
0.725868
0.725885
0.725901
0.725917
0.725934
0.725934
0.72595
0.725966
0.725983
0.725999
0.725999
0.726016
0.726032
0.726048
0.726065
0.726065
0.726081
0.726098
0.726114
0.72613
0.72613
0.726147
0.726163
0.72618
0.726196
0.726196
0.726213
0.726229
0.726246
0.726262
0.726262
0.726279
0.726295
0.726312
0.726328
0.726328
0.726345
0.726361
0.726378
0.726394
0.726394
0.726411
0.726427
0.726444
0.726461
0.726461
0.726477
0.726494
0.72651
0.726527
0.726527
0.726543
0.72656
0.726577
0.726593
0.726593
0.72661
0.726627
0.726643
0.72666
0.72666
0.726677
0.726693
0.72671
0.726727
0.726727
0.726743
0.72676
0.726777
0.726793
0.726793
0.72681
0.726827
0.726844
0.72686
0.72686
0.726877
0.726894
0.726911
0.726927
0.726927
0.726944
0.726961
0.726978
0.726995
0.726995
0.727011
0.727028
0.727045