<?xml version="1.0"?>
<VTKFile type="UnstructuredGrid" version="0.1" byte_order="LittleEndian">
<UnstructuredGrid>
<Piece NumberOfPoints="5000" NumberOfCells="4000">
<PointData Scalars="Reaction 0">
<DataArray type="Float32" Name="Reaction 0" format="ascii">
0.698765
0.698765
0.698765
0.698765
0.698765
0.698765
0.698765
0.698765
0.698765
0.698765
0.698765
0.698765
0.698765
0.698765
0.698765
0.698765
0.698765
0.698765
0.698765
0.698765
0.698765
0.698765
0.698765
0.698766
0.698766
0.698766
0.698766
0.698766
0.698766
0.698766
0.698766
0.698766
0.698766
0.698767
0.698767
0.698767
0.698767
0.698767
0.698767
0.698767
0.698767
0.698768
0.698768
0.698768
0.698768
0.698768
0.698768
0.698769
0.698769
0.698769
0.698769
0.698769
0.69877
0.69877
0.69877
0.69877
0.69877
0.69877
0.698771
0.698771
0.698771
0.698771
0.698772
0.698772
0.698772
0.698772
0.698772
0.698773
0.698773
0.698773
0.698773
0.698774
0.698774
0.698774
0.698775
0.698775
0.698775
0.698775
0.698776
0.698776
0.698776
0.698776
0.698777
0.698777
0.698778
0.698778
0.698778
0.698778
0.698779
0.698779
0.698779
0.69878
0.69878
0.69878
0.698781
0.698781
0.698781
0.698782
0.698782
0.698783
0.698783
0.698783
0.698784
0.698784
0.698784
0.698784
0.698785
0.698785
0.698786
0.698786
0.698786
0.698787
0.698787
0.698788
0.698788
0.698788
0.698789
0.698789
0.69879
0.698791
0.698791
0.698791
0.698792
0.698792
0.698793
0.698793
0.698793
0.698794
0.698794
0.698795
0.698795
0.698796
0.698796
0.698797
0.698797
0.698797
0.698798
0.698799
0.698799
0.6988
0.6988
0.698801
0.698801
0.698802
0.698803
0.698803
0.698803
0.698804
0.698804
0.698805
0.698805
0.698806
0.698807
0.698807
0.698808
0.698808
0.698809
0.698809
0.69881
0.698811
0.698811
0.698811
0.698812
0.698813
0.698814
0.698814
0.698814
0.698815
0.698816
0.698817
0.698817
0.698818
0.698818
0.698819
0.69882
0.69882
0.698821
0.698821
0.698822
0.698823
0.698823
0.698824
0.698825
0.698826
0.698826
0.698826
0.698827
0.698828
0.698829
0.69883
0.69883
0.698831
0.698831
0.698832
0.698833
0.698833
0.698834
0.698835
0.698836
0.698837
0.698837
0.698838
0.698839
0.69884
0.69884
0.69884
0.698841
0.698842
0.698843
0.698844
0.698844
0.698845
0.698846
0.698847
0.698848
0.698848
0.698849
0.69885
0.698851
0.698852
0.698852
0.698853
0.698854
0.698855
0.698856
0.698856
0.698857
0.698858
0.698859
0.69886
0.69886
0.698861
0.698862
0.698863
0.698864
0.698864
0.698865
0.698866
0.698868
0.698869
0.698869
0.69887
0.698871
0.698872
0.698873
0.698873
0.698874
0.698875
0.698876
0.698877
0.698877
0.698879
0.69888
0.698881
0.698882
0.698882
0.698883
0.698884
0.698885
0.698887
0.698887
0.698888
0.698889
0.69889
0.698891
0.698891
0.698893
0.698894
0.698895
0.698896
0.698896
0.698897
0.698899
0.6989
0.698901
0.698901
0.698902
0.698904
0.698905
0.698906
0.698906
0.698907
0.698909
0.69891
0.698911
0.698911
0.698913
0.698914
0.698915
0.698916
0.698916
0.698918
0.698919
0.69892
0.698922
0.698922
0.698923
0.698924
0.698926
0.698927
0.698927
0.698929
0.69893
0.698931
0.698933
0.698933
0.698934
0.698935
0.698937
0.698938
0.698938
0.69894
0.698941
0.698942
0.698944
0.698944
0.698945
0.698947
0.698948
0.69895
0.69895
0.698951
0.698952
0.698954
0.698955
0.698955
0.698957
0.698958
0.69896
0.698961
0.698961
0.698963
0.698964
0.698966
0.698967
0.698967
0.698969
0.69897
0.698972
0.698973
0.698973
0.698975
0.698977
0.698978
0.69898
0.69898
0.698981
0.698983
0.698984
0.698986
0.698986
0.698988
0.698989
0.698991
0.698992
0.698992
0.698994
0.698996
0.698997
0.698999
0.698999
0.699
0.699002
0.699004
0.699005
0.699005
0.699007
0.699009
0.69901
0.699012
0.699012
0.699014
0.699015
0.699017
0.699019
0.699019
0.69902
0.699022
0.699024
0.699026
0.699026
0.699027
0.699029
0.699031
0.699032
0.699032
0.699034
0.699036
0.699038
0.699039
0.699039
0.699041
0.699043
0.699045
0.699047
0.699047
0.699048
0.69905
0.699052
0.699054
0.699054
0.699056
0.699057
0.699059
0.699061
0.699061
0.699063
0.699065
0.699067
0.699068
0.699068
0.69907
0.699072
0.699074
0.699076
0.699076
0.699078
0.69908
0.699082
0.699083
0.699083
0.699085
0.699087
0.699089
0.699091
0.699091
0.699093
0.699095
0.699097
0.699099
0.699099
0.699101
0.699103
0.699105
0.699107
0.699107
0.699109
0.699111
0.699113
0.699115
0.699115
0.699117
0.699119
0.699121
0.699123
0.699123
0.699125
0.699127
0.699129
0.699131
0.699131
0.699133
0.699135
0.699137
0.699139
0.699139
0.699141
0.699143
0.699145
0.699147
0.699147
0.699149
0.699151
0.699153
0.699155
0.699155
0.699158
0.69916
0.699162
0.699164
0.699164
0.699166
0.699168
0.69917
0.699173
0.699173
0.699175
0.699177
0.699179
0.699181
0.699181
0.699183
0.699185
0.699188
0.69919
0.69919
0.699192
0.699194
0.699196
0.699199
0.699199
0.699201
0.699203
0.699205
0.699208
0.699208
0.69921
0.699212
0.699214
0.699217
0.699217
0.699219
0.699221
0.699223
0.699226
0.699226
0.699228
0.69923
0.699233
0.699235
0.699235
0.699237
0.69924
0.699242
0.699244
0.699244
0.699247
0.699249
0.699251
0.699254
0.699254
0.699256
0.699258
0.699261
0.699263
0.699263
0.699265
0.699268
0.69927
0.699273
0.699273
0.699275
0.699277
0.69928
0.699282
0.699282
0.699285
0.699287
0.69929
0.699292
0.699292
0.699294
0.699297
0.699299
0.699302
0.699302
0.699304
0.699307
0.699309
0.699312
0.699312
0.699314
0.699317
0.699319
0.699322
0.699322
0.699324
0.699327
0.699329
0.699332
0.699332
0.699334
0.699337
0.699339
0.699342
0.699342
0.699345
0.699347
0.69935
0.699352
0.699352
0.699355
0.699357
0.69936
0.699363
0.699363
0.699365
0.699368
0.69937
0.699373
0.699373
0.699376
0.699378
0.699381
0.699384
0.699384
0.699386
0.699389
0.699392
0.699394
0.699394
0.699397
0.6994
0.699402
0.699405
0.699405
0.699408
0.69941
0.699413
0.699416
0.699416
0.699419
0.699421
0.699424
0.699427
0.699427
0.69943
0.699432
0.699435
0.699438
0.699438
0.699441
0.699443
0.699446
0.699449
0.699449
0.699452
0.699454
0.699457
0.69946
0.69946
0.699463
0.699466
0.699469
0.699471
0.699471
0.699474
0.699477
0.69948
0.699483
0.699483
0.699486
0.699488
0.699491
0.699494
0.699494
0.699497
0.6995
0.699503
0.699506
0.699506
0.699509
0.699512
0.699515
0.699517
0.699517
0.69952
0.699523
0.699526
0.699529
0.699529
0.699532
0.699535
0.699538
0.699541
0.699541
0.699544
0.699547
0.69955
0.699553
0.699553
0.699556
0.699559
0.699562
0.699565
0.699565
0.699568
0.699571
0.699574
0.699577
0.699577
0.69958
0.699583
0.699586
0.699589
0.699589
0.699592
0.699595
0.699598
0.699602
0.699602
0.699605
0.699608
0.699611
0.699614
0.699614
0.699617
0.69962
0.699623
0.699626
0.699626
0.69963
0.699633
0.699636
0.699639
0.699639
0.699642
0.699645
0.699648
0.699652
0.699652
0.699655
0.699658
0.699661
0.699664
0.699664
0.699668
0.699671
0.699674
0.699677
0.699677
0.69968
0.699684
0.699687
0.69969
0.69969
0.699693
0.699697
0.6997
0.699703
0.699703
0.699706
0.69971
0.699713
0.699716
0.699716
0.69972
0.699723
0.699726
0.699729
0.699729
0.699733
0.699736
0.699739
0.699743
0.699743
0.699746
0.699749
0.699753
0.699756
0.699756
0.699759
0.699763
0.699766
0.69977
0.69977
0.699773
0.699776
0.69978
0.699783
0.699783
0.699787
0.69979
0.699793
0.699797
0.699797
0.6998
0.699804
0.699807
0.699811
0.699811
0.699814
0.699818
0.699821
0.699824
0.699824
0.699828
0.699831
0.699835
0.699838
0.699838
0.699842
0.699845
0.699849
0.699852
0.699852
0.699856
0.699859
0.699863
0.699867
0.699867
0.69987
0.699874
0.699877
0.699881
0.699881
0.699884
0.699888
0.699891
0.699895
0.699895
0.699899
0.699902
0.699906
0.699909
0.699909
0.699913
0.699917
0.69992
0.699924
0.699924
0.699928
0.699931
0.699935
0.699939
0.699939
0.699942
0.699946
0.69995
0.699953
0.699953
0.699957
0.699961
0.699964
0.699968
0.699968
0.699972
0.699975
0.699979
0.699983
0.699983
0.699987
0.69999
0.699994
0.699998
0.699998
0.700002
0.700005
0.700009
0.700013
0.700013
0.700017
0.70002
0.700024
0.700028
0.700028
0.700032
0.700036
0.700039
0.700043
0.700043
0.700047
0.700051
0.700055
0.700058
0.700058
0.700062
0.700066
0.70007
0.700074
0.700074
0.700078
0.700082
0.700086
0.700089
0.700089
0.700093
0.700097
0.700101
0.700105
0.700105
0.700109
0.700113
0.700117
0.700121
0.700121
0.700125
0.700129
0.700132
0.700136
0.700136
0.70014
0.700144
0.700148
0.700152
0.700152
0.700156
0.70016
0.700164
0.700168
0.700168
0.700172
0.700176
0.70018
0.700184
0.700184
0.700188
0.700192
0.700196
0.7002
0.7002
0.700205
0.700209
0.700213
0.700217
0.700217
0.700221
0.700225
0.700229
0.700233
0.700233
0.700237
0.700241
0.700245
0.700249
0.700249
0.700254
0.700258
0.700262
0.700266
0.700266
0.70027
0.700274
0.700278
0.700283
0.700283
0.700287
0.700291
0.700295
0.700299
0.700299
0.700303
0.700308
0.700312
0.700316
0.700316
0.70032
0.700325
0.700329
0.700333
0.700333
0.700337
0.700341
0.700346
0.70035
0.70035
0.700354
0.700358
0.700363
0.700367
0.700367
0.700371
0.700376
0.70038
0.700384
0.700384
0.700388
0.700393
0.700397
0.700401
0.700401
0.700406
0.70041
0.700414
0.700419
0.700419
0.700423
0.700427
0.700432
0.700436
0.700436
0.700441
0.700445
0.700449
0.700454
0.700454
0.700458
0.700463
0.700467
0.700471
0.700471
0.700476
0.70048
0.700485
0.700489
0.700489
0.700494
0.700498
0.700502
0.700507
0.700507
0.700511
0.700516
0.70052
0.700525
0.700525
0.700529
0.700534
0.700538
0.700543
0.700543
0.700547
0.700552
0.700556
0.700561
0.700561
0.700565
0.70057
0.700574
0.700579
0.700579
0.700584
0.700588
0.700593
0.700597
0.700597
0.700602
0.700607
0.700611
0.700616
0.700616
0.70062
0.700625
0.70063
0.700634
0.700634
0.700639
0.700643
0.700648
0.700653
0.700653
0.700657
0.700662
0.700667
0.700671
0.700671
0.700676
0.700681
0.700685
0.70069
0.70069
0.700695
0.7007
0.700704
0.700709
0.700709
0.700714
0.700718
0.700723
0.700728
0.700728
0.700733
0.700737
0.700742
0.700747
0.700747
0.700752
0.700756
0.700761
0.700766
0.700766
0.700771
0.700776
0.70078
0.700785
0.700785
0.70079
0.700795
0.7008
0.700804
0.700804
0.700809
0.700814
0.700819
0.700824
0.700824
0.700829
0.700834
0.700838
0.700843
0.700843
0.700848
0.700853
0.700858
0.700863
0.700863
0.700868
0.700873
0.700878
0.700883
0.700883
0.700888
0.700892
0.700897
0.700902
0.700902
0.700907
0.700912
0.700917
0.700922
0.700922
0.700927
0.700932
0.700937
0.700942
0.700942
0.700947
0.700952
0.700957
0.700962
0.700962
0.700967
0.700972
0.700977
0.700982
0.700982
0.700987
0.700992
0.700997
0.701003
0.701003
0.701008
0.701013
0.701018
0.701023
0.701023
0.701028
0.701033
0.701038
0.701043
0.701043
0.701048
0.701054
0.701059
0.701064
0.701064
0.701069
0.701074
0.701079
0.701084
0.701084
0.70109
0.701095
0.7011
0.701105
0.701105
0.70111
0.701115
0.701121
0.701126
0.701126
0.701131
0.701136
0.701142
0.701147
0.701147
0.701152
0.701157
0.701162
0.701168
0.701168
0.701173
0.701178
0.701184
0.701189
0.701189
0.701194
0.701199
0.701205
0.70121
0.70121
0.701215
0.701221
0.701226
0.701231
0.701231
0.701237
0.701242
0.701247
0.701253
0.701253
0.701258
0.701263
0.701269
0.701274
0.701274
0.701279
0.701285
0.70129
0.701296
0.701296
0.701301
0.701306
0.701312
0.701317
0.701317
0.701323
0.701328
0.701333
0.701339
0.701339
0.701344
0.70135
0.701355
0.701361
0.701361
0.701366
0.701372
0.701377
0.701383
0.701383
0.701388
0.701394
0.701399
0.701405
0.701405
0.70141
0.701416
0.701421
0.701427
0.701427
0.701432
0.701438
0.701443
0.701449
0.701449
0.701455
0.70146
0.701466
0.701471
0.701471
0.701477
0.701482
0.701488
0.701494
0.701494
0.701499
0.701505
0.70151
0.701516
0.701516
0.701522
0.701527
0.701533
0.701539
0.701539
0.701544
0.70155
0.701556
0.701561
0.701561
0.701567
0.701573
0.701578
0.701584
0.701584
0.70159
0.701595
0.701601
0.701607
0.701607
0.701613
0.701618
0.701624
0.70163
0.70163
0.701636
0.701641
0.701647
0.701653
0.701653
0.701659
0.701664
0.70167
0.701676
0.701676
0.701682
0.701688
0.701693
0.701699
0.701699
0.701705
0.701711
0.701717
0.701723
0.701723
0.701728
0.701734
0.70174
0.701746
0.701746
0.701752
0.701758
0.701764
0.70177
0.70177
0.701775
0.701781
0.701787
0.701793
0.701793
0.701799
0.701805
0.701811
0.701817
0.701817
0.701823
0.701829
0.701835
0.701841
0.701841
0.701847
0.701853
0.701859
0.701865
0.701865
0.701871
0.701877
0.701883
0.701889
0.701889
0.701895
0.701901
0.701907
0.701913
0.701913
0.701919
0.701925
0.701931
0.701937
0.701937
0.701943
0.701949
0.701955
0.701961
0.701961
0.701967
0.701973
0.701979
0.701985
0.701985
0.701991
0.701998
0.702004
0.70201
0.70201
0.702016
0.702022
0.702028
0.702034
0.702034
0.702041
0.702047
0.702053
0.702059
0.702059
0.702065
0.702071
0.702078
0.702084
0.702084
0.70209
0.702096
0.702102
0.702109
0.702109
0.702115
0.702121
0.702127
0.702134
0.702134
0.70214
0.702146
0.702152
0.702159
0.702159
0.702165
0.702171
0.702177
0.702184
0.702184
0.70219
0.702196
0.702203
0.702209
0.702209
0.702215
0.702222
0.702228
0.702234
0.702234
0.702241
0.702247
0.702253
0.70226
0.70226
0.702266
0.702272
0.702279
0.702285
0.702285
0.702292
0.702298
0.702304
0.702311
0.702311
0.702317
0.702324
0.70233
0.702336
0.702336
0.702343
0.702349
0.702356
0.702362
0.702362
0.702369
0.702375
0.702382
0.702388
0.702388
0.702395
0.702401
0.702408
0.702414
0.702414
0.702421
0.702427
0.702434
0.70244
0.70244
0.702447
0.702453
0.70246
0.702466
0.702466
0.702473
0.702479
0.702486
0.702493
0.702493
0.702499
0.702506
0.702512
0.702519
0.702519
0.702526
0.702532
0.702539
0.702545
0.702545
0.702552
0.702559
0.702565
0.702572
0.702572
0.702579
0.702585
0.702592
0.702599
0.702599
0.702605
0.702612
0.702619
0.702625
0.702625
0.702632
0.702639
0.702645
0.702652
0.702652
0.702659
0.702666
0.702672
0.702679
0.702679
0.702686
0.702693
0.702699
0.702706
0.702706
0.702713
0.70272
0.702726
0.702733
0.702733
0.70274
0.702747
0.702754
0.70276
0.70276
0.702767
0.702774
0.702781
0.702788
0.702788
0.702795
0.702801
0.702808
0.702815
0.702815
0.702822
0.702829
0.702836
0.702843
0.702843
0.702849
0.702856
0.702863
0.70287
0.70287
0.702877
0.702884
0.702891
0.702898
0.702898
0.702905
0.702912
0.702919
0.702926
0.702926
0.702933
0.70294
0.702947
0.702954
0.702954
0.702961
0.702968
0.702975
0.702982
0.702982
0.702989
0.702996
0.703003
0.70301
0.70301
0.703017
0.703024
0.703031
0.703038
0.703038
0.703045
0.703052
0.703059
0.703066
0.703066
0.703073
0.70308
0.703087
0.703094
0.703094
0.703102
0.703109
0.703116
0.703123
0.703123
0.70313
0.703137
0.703144
0.703151
0.703151
0.703159
0.703166
0.703173
0.70318
0.70318
0.703187
0.703194
0.703202
0.703209
0.703209
0.703216
0.703223
0.70323
0.703238
0.703238
0.703245
0.703252
0.703259
0.703267
0.703267
0.703274
0.703281
0.703288
0.703296
0.703296
0.703303
0.70331
0.703318
0.703325
0.703325
0.703332
0.703339
0.703347
0.703354
0.703354
0.703361
0.703369
0.703376
0.703383
0.703383
0.703391
0.703398
0.703405
0.703413
0.703413
0.70342
0.703428
0.703435
0.703442
0.703442
0.70345
0.703457
0.703465
0.703472
0.703472
0.703479
0.703487
0.703494
0.703502
0.703502
0.703509
0.703517
0.703524
0.703531
0.703531
0.703539
0.703546
0.703554
0.703561
0.703561
0.703569
0.703576
0.703584
0.703591
0.703591
0.703599
0.703606
0.703614
0.703622
0.703622
0.703629
0.703637
0.703644
0.703652
0.703652
0.703659
0.703667
0.703674
0.703682
0.703682
0.70369
0.703697
0.703705
0.703712
0.703712
0.70372
0.703728
0.703735
0.703743
0.703743
0.703751
0.703758
0.703766
0.703773
0.703773
0.703781
0.703789
0.703796
0.703804
0.703804
0.703812
0.70382
0.703827
0.703835
0.703835
0.703843
0.70385
0.703858
0.703866
0.703866
0.703874
0.703881
0.703889
0.703897
0.703897
0.703905
0.703912
0.70392
0.703928
0.703928
0.703936
0.703943
0.703951
0.703959
0.703959
0.703967
0.703975
0.703982
0.70399
0.70399
0.703998
0.704006
0.704014
0.704022
0.704022
0.70403
0.704037
0.704045
0.704053
0.704053
0.704061
0.704069
0.704077
0.704085
0.704085
0.704093
0.7041
0.704108
0.704116
0.704116
0.704124
0.704132
0.70414
0.704148
0.704148
0.704156
0.704164
0.704172
0.70418
0.70418
0.704188
0.704196
0.704204
0.704212
0.704212
0.70422
0.704228
0.704236
0.704244
0.704244
0.704252
0.70426
0.704268
0.704276
0.704276
0.704284
0.704292
0.7043
0.704308
0.704308
0.704316
0.704324
0.704333
0.704341
0.704341
0.704349
0.704357
0.704365
0.704373
0.704373
0.704381
0.704389
0.704397
0.704406
0.704406
0.704414
0.704422
0.70443
0.704438
0.704438
0.704446
0.704455
0.704463
0.704471
0.704471
0.704479
0.704487
0.704496
0.704504
0.704504
0.704512
0.70452
0.704528
0.704537
0.704537
0.704545
0.704553
0.704561
0.70457
0.70457
0.704578
0.704586
0.704595
0.704603
0.704603
0.704611
0.704619
0.704628
0.704636
0.704636
0.704644
0.704653
0.704661
0.704669
0.704669
0.704678
0.704686
0.704694
0.704703
0.704703
0.704711
0.70472
0.704728
0.704736
0.704736
0.704745
0.704753
0.704761
0.70477
0.70477
0.704778
0.704787
0.704795
0.704804
0.704804
0.704812
0.704821
0.704829
0.704837
0.704837
0.704846
0.704854
0.704863
0.704871
0.704871
0.70488
0.704888
0.704897
0.704905
0.704905
0.704914
0.704922
0.704931
0.704939
0.704939
0.704948
0.704957
0.704965
0.704974
0.704974
0.704982
0.704991
0.704999
0.705008
0.705008
0.705017
0.705025
0.705034
0.705042
0.705042
0.705051
0.70506
0.705068
0.705077
0.705077
0.705086
0.705094
0.705103
0.705111
0.705111
0.70512
0.705129
0.705137
0.705146
0.705146
0.705155
0.705164
0.705172
0.705181
0.705181
0.70519
0.705198
0.705207
0.705216
0.705216
0.705225
0.705233
0.705242
0.705251
0.705251
0.70526
0.705268
0.705277
0.705286
0.705286
0.705295
0.705304
0.705312
0.705321
0.705321
0.70533
0.705339
0.705348
0.705356
0.705356
0.705365
0.705374
0.705383
0.705392
0.705392
0.705401
0.705409
0.705418
0.705427
0.705427
0.705436
0.705445
0.705454
0.705463
0.705463
0.705472
0.705481
0.70549
0.705499
0.705499
0.705507
0.705516
0.705525
0.705534
0.705534
0.705543
0.705552
0.705561
0.70557
0.70557
0.705579
0.705588
0.705597
0.705606
0.705606
0.705615
0.705624
0.705633
0.705642
0.705642
0.705651
0.70566
0.705669
0.705678
0.705678
0.705688
0.705697
0.705706
0.705715
0.705715
0.705724
0.705733
0.705742
0.705751
0.705751
0.70576
0.705769
0.705778
0.705788
0.705788
0.705797
0.705806
0.705815
0.705824
0.705824
0.705833
0.705842
0.705852
0.705861
0.705861
0.70587
0.705879
0.705888
0.705898
0.705898
0.705907
0.705916
0.705925
0.705935
0.705935
0.705944
0.705953
0.705962
0.705972
0.705972
0.705981
0.70599
0.705999
0.706009
0.706009
0.706018
0.706027
0.706036
0.706046
0.706046
0.706055
0.706064
0.706074
0.706083
0.706083
0.706092
0.706102
0.706111
0.70612
0.70612
0.70613
0.706139
0.706149
0.706158
0.706158
0.706167
0.706177
0.706186
0.706195
0.706195
0.706205
0.706214
0.706224
0.706233
0.706233
0.706243
0.706252
0.706261
0.706271
0.706271
0.70628
0.70629
0.706299
0.706309
0.706309
0.706318
0.706328
0.706337
0.706347
0.706347
0.706356
0.706366
0.706375
0.706385
0.706385
0.706394
0.706404
0.706414
0.706423
0.706423
0.706433
0.706442
0.706452
0.706461
0.706461
0.706471
0.70648
0.70649
0.7065
0.7065
0.706509
0.706519
0.706529
0.706538
0.706538
0.706548
0.706557
0.706567
0.706577
0.706577
0.706586
0.706596
0.706606
0.706615
0.706615
0.706625
0.706635
0.706645
0.706654
0.706654
0.706664
0.706674
0.706683
0.706693
0.706693
0.706703
0.706713
0.706722
0.706732
0.706732
0.706742
0.706752
0.706761
0.706771
0.706771
0.706781
0.706791
0.706801
0.70681
0.70681
0.70682
0.70683
0.70684
0.70685
0.70685
0.70686
0.706869
0.706879
0.706889
0.706889
0.706899
0.706909
0.706919
0.706929
0.706929
0.706938
0.706948
0.706958
0.706968
0.706968
0.706978
0.706988
0.706998
0.707008
0.707008
0.707018
0.707028
0.707038
0.707048
0.707048
0.707058
0.707068
0.707078
0.707088
0.707088
0.707098
0.707108
0.707117
0.707128
0.707128
0.707138
0.707148
0.707158
0.707168
0.707168
0.707178
0.707188
0.707198
0.707208
0.707208
0.707218
0.707228
0.707238
0.707248
0.707248
0.707258
0.707268
0.707278
0.707289
0.707289
0.707299
0.707309
0.707319
0.707329
0.707329
0.707339
0.707349
0.707359
0.70737
0.70737
0.70738
0.70739
0.7074
0.70741
0.70741
0.70742
0.707431
0.707441
0.707451
0.707451
0.707461
0.707472
0.707482
0.707492
0.707492
0.707502
0.707513
0.707523
0.707533
0.707533
0.707543
0.707554
0.707564
0.707574
0.707574
0.707584
0.707595
0.707605
0.707615
0.707615
0.707626
0.707636
0.707646
0.707657
0.707657
0.707667
0.707677
0.707688
0.707698
0.707698
0.707708
0.707719
0.707729
0.70774
0.70774
0.70775
0.70776
0.707771
0.707781
0.707781
0.707792
0.707802
0.707813
0.707823
0.707823
0.707833
0.707844
0.707854
0.707865
0.707865
0.707875
0.707886
0.707896
0.707907
0.707907
0.707917
0.707928
0.707938
0.707949
0.707949
0.707959
0.70797
0.70798
0.707991
0.707991
0.708001
0.708012
0.708023
0.708033
0.708033
0.708044
0.708054
0.708065
0.708075
0.708075
0.708086
0.708097
0.708107
0.708118
0.708118
0.708129
0.708139
0.70815
0.70816
0.70816
0.708171
0.708182
0.708192
0.708203
0.708203
0.708214
0.708224
0.708235
0.708246
0.708246
0.708257
0.708267
0.708278
0.708289
0.708289
0.708299
0.70831
0.708321
0.708332
0.708332
0.708342
0.708353
0.708364
0.708375
0.708375
0.708385
0.708396
0.708407
0.708418
0.708418
0.708429
0.708439
0.70845
0.708461
0.708461
0.708472
0.708483
0.708494
0.708504
0.708504
0.708515
0.708526
0.708537
0.708548
0.708548
0.708559
0.70857
0.708581
0.708592
0.708592
0.708602
0.708613
0.708624
0.708635
0.708635
0.708646
0.708657
0.708668
0.708679
0.708679
0.70869
0.708701
0.708712
0.708723
0.708723
0.708734
0.708745
0.708756
0.708767
0.708767
0.708778
0.708789
0.7088
0.708811
0.708811
0.708822
0.708833
0.708844
0.708855
0.708855
0.708866
0.708877
0.708888
0.708899
0.708899
0.70891
0.708922
0.708933
0.708944
0.708944
0.708955
0.708966
0.708977
0.708988
0.708988
0.708999
0.709011
0.709022
0.709033
0.709033
0.709044
0.709055
0.709066
0.709078
0.709078
0.709089
0.7091
0.709111
0.709122
0.709122
0.709134
0.709145
0.709156
0.709167
0.709167
0.709179
0.70919
0.709201
0.709212
0.709212
0.709224
0.709235
0.709246
0.709257
0.709257
0.709269
0.70928
0.709291
0.709303
0.709303
0.709314
0.709325
0.709337
0.709348
0.709348
0.709359
0.709371
0.709382
0.709393
0.709393
0.709405
0.709416
0.709428
0.709439
0.709439
0.70945
0.709462
0.709473
0.709485
0.709485
0.709496
0.709508
0.709519
0.70953
0.70953
0.709542
0.709553
0.709565
0.709576
0.709576
0.709588
0.709599
0.709611
0.709622
0.709622
0.709634
0.709645
0.709657
0.709668
0.709668
0.70968
0.709691
0.709703
0.709714
0.709714
0.709726
0.709738
0.709749
0.709761
0.709761
0.709772
0.709784
0.709796
0.709807
0.709807
0.709819
0.70983
0.709842
0.709854
0.709854
0.709865
0.709877
0.709889
0.7099
0.7099
0.709912
0.709924
0.709935
0.709947
0.709947
0.709959
0.70997
0.709982
0.709994
0.709994
0.710005
0.710017
0.710029
0.710041
0.710041
0.710052
0.710064
0.710076
0.710088
0.710088
0.710099
0.710111
0.710123
0.710135
0.710135
0.710146
0.710158
0.71017
0.710182
0.710182
0.710194
0.710206
0.710217
0.710229
0.710229
0.710241
0.710253
0.710265
0.710277
0.710277
0.710289
0.7103
0.710312
0.710324
0.710324
0.710336
0.710348
0.71036
0.710372
0.710372
0.710384
0.710396
0.710408
0.71042
0.71042
0.710432
0.710443
0.710455
0.710467
0.710467
0.710479
0.710491
0.710503
0.710515
0.710515
0.710527
0.710539
0.710551
0.710563
0.710563
0.710575
0.710587
0.710599
0.710612
0.710612
0.710624
0.710636
0.710648
0.71066
0.71066
0.710672
0.710684
0.710696
0.710708
0.710708
0.71072
0.710732
0.710745
0.710757
0.710757
0.710769
0.710781
0.710793
0.710805
0.710805
0.710817
0.71083
0.710842
0.710854
0.710854
0.710866
0.710878
0.710891
0.710903
0.710903
0.710915
0.710927
0.710939
0.710952
0.710952
0.710964
0.710976
0.710988
0.711001
0.711001
0.711013
0.711025
0.711037
0.71105
0.71105
0.711062
0.711074
0.711087
0.711099
0.711099
0.711111
0.711124
0.711136
0.711148
0.711148
0.711161
0.711173
0.711185
0.711198
0.711198
0.71121
0.711223
0.711235
0.711247
0.711247
0.71126
0.711272
0.711285
0.711297
0.711297
0.711309
0.711322
0.711334
0.711347
0.711347
0.711359
0.711372
0.711384
0.711397
0.711397
0.711409
0.711422
0.711434
0.711447
0.711447
0.711459
0.711472
0.711484
0.711497
0.711497
0.711509
0.711522
0.711534
0.711547
0.711547
0.711559
0.711572
0.711585
0.711597
0.711597
0.71161
0.711622
0.711635
0.711647
0.711647
0.71166
0.711673
0.711685
0.711698
0.711698
0.711711
0.711723
0.711736
0.711749
0.711749
0.711761
0.711774
0.711787
0.711799
0.711799
0.711812
0.711825
0.711837
0.71185
0.71185
0.711863
0.711876
0.711888
0.711901
0.711901
0.711914
0.711927
0.711939
0.711952
0.711952
0.711965
0.711978
0.71199
0.712003
0.712003
0.712016
0.712029
0.712042
0.712054
0.712054
0.712067
0.71208
0.712093
0.712106
0.712106
0.712119
0.712132
0.712144
0.712157
0.712157
0.71217
0.712183
0.712196
0.712209
0.712209
0.712222
0.712235
0.712248
0.712261
0.712261
0.712274
0.712286
0.712299
0.712312
0.712312
0.712325
0.712338
0.712351
0.712364
0.712364
0.712377
0.71239
0.712403
0.712416
0.712416
0.712429
0.712442
0.712455
0.712468
0.712468
0.712481
0.712494
0.712508
0.712521
0.712521
0.712534
0.712547
0.71256
0.712573
0.712573
0.712586
0.712599
0.712612
0.712625
0.712625
0.712638
0.712652
0.712665
0.712678
0.712678
0.712691
0.712704
0.712717
0.712731
0.712731
0.712744
0.712757
0.71277
0.712783
0.712783
0.712797
0.71281
0.712823
0.712836
0.712836
0.712849
0.712863
0.712876
0.712889
0.712889
0.712902
0.712916
0.712929
0.712942
0.712942
0.712956
0.712969
0.712982
0.712995
0.712995
0.713009
0.713022
0.713035
0.713049
0.713049
0.713062
0.713075
0.713089
0.713102
0.713102
0.713115
0.713129
0.713142
0.713156
0.713156
0.713169
0.713182
0.713196
0.713209
0.713209
0.713223
0.713236
0.71325
0.713263
0.713263
0.713276
0.71329
0.713303
0.713317
0.713317
0.71333
0.713344
0.713357
0.713371
0.713371
0.713384
0.713398
0.713411
0.713425
0.713425
0.713438
0.713452
0.713466
0.713479
0.713479
0.713493
0.713506
0.71352
0.713533
0.713533
0.713547
0.713561
0.713574
0.713588
0.713588
0.713601
0.713615
0.713629
0.713642
0.713642
0.713656
0.71367
0.713683
0.713697
0.713697
0.713711
0.713724
0.713738
0.713752
0.713752
0.713765
0.713779
0.713793
0.713806
0.713806
0.71382
0.713834
0.713848
0.713861
0.713861
0.713875
0.713889
0.713903
0.713916
0.713916
0.71393
0.713944
0.713958
0.713972
0.713972
0.713985
0.713999
0.714013
0.714027
0.714027
0.714041
0.714054
0.714068
0.714082
0.714082
0.714096
0.71411
0.714124
0.714138
0.714138
0.714152
0.714165
0.714179
0.714193
0.714193
0.714207
0.714221
0.714235
0.714249
0.714249
0.714263
0.714277
0.714291
0.714305
0.714305
0.714319
0.714333
0.714347
0.714361
0.714361
0.714375
0.714389
0.714403
0.714417
0.714417
0.714431
0.714445
0.714459
0.714473
0.714473
0.714487
0.714501
0.714515
0.714529
0.714529
0.714543
0.714557
0.714571
0.714586
0.714586
0.7146
0.714614
0.714628
0.714642
0.714642
0.714656
0.71467
0.714684
0.714699
0.714699
0.714713
0.714727
0.714741
0.714755
0.714755
0.714769
0.714784
0.714798
0.714812
0.714812
0.714826
0.714841
0.714855
0.714869
0.714869
0.714883
0.714898
0.714912
0.714926
0.714926
0.71494
0.714955
0.714969
0.714983
0.714983
0.714997
0.715012
0.715026
0.71504
0.71504
0.715055
0.715069
0.715083
0.715098
0.715098
0.715112
0.715127
0.715141
0.715155
0.715155
0.71517
0.715184
0.715198
0.715213
0.715213
0.715227
0.715242
0.715256
0.715271
0.715271
0.715285
0.715299
0.715314
0.715328
0.715328
0.715343
0.715357
0.715372
0.715386
0.715386
0.715401
0.715415
0.71543
0.715444
0.715444
0.715459
0.715473
0.715488
0.715502
0.715502
0.715517
0.715532
0.715546
0.715561
0.715561
0.715575
0.71559
0.715604
0.715619
0.715619
0.715634
0.715648
0.715663
0.715678
0.715678
0.715692
0.715707
0.715721
0.715736
0.715736
0.715751
0.715765
0.71578
0.715795
0.715795
0.71581
0.715824
0.715839
0.715854
0.715854
0.715868
0.715883
0.715898
0.715913
0.715913
0.715927
0.715942
0.715957
0.715972
0.715972
0.715986
0.716001
0.716016
0.716031
0.716031
0.716046
0.71606
0.716075
0.71609
0.71609
0.716105
0.71612
0.716135
0.716149
0.716149
0.716164
0.716179
0.716194
0.716209
0.716209
0.716224
0.716239
0.716254
0.716268
0.716268
0.716283
0.716298
0.716313
0.716328
0.716328
0.716343
0.716358
0.716373
0.716388
0.716388
0.716403
0.716418
0.716433
0.716448
0.716448
0.716463
0.716478
0.716493
0.716508
0.716508
0.716523
0.716538
0.716553
0.716568
0.716568
0.716583
0.716598
0.716613
0.716628
0.716628
0.716643
0.716659
0.716674
0.716689
0.716689
0.716704
0.716719
0.716734
0.716749
0.716749
0.716764
0.71678
0.716795
0.71681
0.71681
0.716825
0.71684
0.716855
0.716871
0.716871
0.716886
0.716901
0.716916
0.716931
0.716931
0.716947
0.716962
0.716977
0.716992
0.716992
0.717008
0.717023
0.717038
0.717053
0.717053
0.717069
0.717084
0.717099
0.717115
0.717115
0.71713
0.717145
0.717161
0.717176
0.717176
0.717191
0.717207
0.717222
0.717237
0.717237
0.717253
0.717268
0.717283
0.717299
0.717299
0.717314
0.71733
0.717345
0.71736
0.71736
0.717376
0.717391
0.717407
0.717422
0.717422
0.717438
0.717453
0.717469
0.717484
0.717484
0.7175
0.717515
0.717531
0.717546
0.717546
0.717562
0.717577
0.717593
0.717608
0.717608
0.717624
0.717639
0.717655
0.71767
0.71767
0.717686
0.717702
0.717717
0.717733
0.717733
0.717748
0.717764
0.717779
0.717795
0.717795
0.717811
0.717826
0.717842
0.717858
0.717858
0.717873
0.717889
0.717905
0.71792
0.71792
0.717936
0.717952
0.717967
0.717983
0.717983
0.717999
0.718014
0.71803
0.718046
0.718046
0.718062
0.718077
0.718093
0.718109
0.718109
0.718125
0.71814
0.718156
0.718172
0.718172
0.718188
0.718204
0.718219
0.718235
0.718235
0.718251
0.718267
0.718283
0.718299
0.718299
0.718314
0.71833
0.718346
0.718362
0.718362
0.718378
0.718394
0.71841
0.718426
0.718426
0.718442
0.718457
0.718473
0.718489
0.718489
0.718505
0.718521
0.718537
0.718553
0.718553
0.718569
0.718585
0.718601
0.718617
0.718617
0.718633
0.718649
0.718665
0.718681
0.718681
0.718697
0.718713
0.718729
0.718745
0.718745
0.718761
0.718777
0.718793
0.71881
0.71881
0.718826
0.718842
0.718858
0.718874
0.718874
0.71889
0.718906
0.718922
0.718938
0.718938
0.718955
0.718971
0.718987
0.719003
0.719003
0.719019
0.719035
0.719052
0.719068
0.719068
0.719084
0.7191
0.719116
0.719133
0.719133
0.719149
0.719165
0.719181
0.719197
0.719197
0.719214
0.71923
0.719246
0.719263
0.719263
0.719279
0.719295
0.719311
0.719328
0.719328
0.719344
0.71936
0.719377
0.719393
0.719393
0.719409
0.719426
0.719442
0.719458
0.719458
0.719475
0.719491
0.719508
0.719524
0.719524
0.71954
0.719557
0.719573
0.71959
0.71959
0.719606
0.719623
0.719639
0.719655
0.719655
0.719672
0.719688
0.719705
0.719721
0.719721
0.719738
0.719754
0.719771
0.719787
0.719787
0.719804
0.71982
0.719837
0.719853
0.719853
0.71987
0.719887
0.719903
0.71992
0.71992
0.719936