<?xml version="1.0"?>
<VTKFile type="UnstructuredGrid" version="0.1" byte_order="LittleEndian">
<UnstructuredGrid>
<Piece NumberOfPoints="5000" NumberOfCells="4000">
<PointData Scalars="Reaction 0">
<DataArray type="Float32" Name="Reaction 0" format="ascii">
0.941281
0.941281
0.941281
0.941281
0.941281
0.941281
0.941281
0.941281
0.941281
0.941281
0.941281
0.941281
0.941281
0.941281
0.941281
0.941281
0.941281
0.941281
0.941281
0.941281
0.941281
0.941281
0.941281
0.941281
0.941281
0.941281
0.941281
0.941281
0.941281
0.941281
0.941281
0.941282
0.941282
0.941282
0.941282
0.941282
0.941282
0.941282
0.941282
0.941282
0.941282
0.941282
0.941282
0.941282
0.941282
0.941282
0.941282
0.941282
0.941282
0.941282
0.941282
0.941282
0.941282
0.941282
0.941282
0.941282
0.941282
0.941282
0.941282
0.941282
0.941282
0.941282
0.941282
0.941282
0.941283
0.941283
0.941283
0.941283
0.941283
0.941283
0.941283
0.941283
0.941283
0.941283
0.941283
0.941283
0.941283
0.941283
0.941283
0.941283
0.941283
0.941283
0.941283
0.941283
0.941283
0.941283
0.941284
0.941284
0.941284
0.941284
0.941284
0.941284
0.941284
0.941284
0.941284
0.941284
0.941284
0.941284
0.941284
0.941284
0.941284
0.941284
0.941285
0.941285
0.941285
0.941285
0.941285
0.941285
0.941285
0.941285
0.941285
0.941285
0.941285
0.941285
0.941285
0.941285
0.941285
0.941286
0.941286
0.941286
0.941286
0.941286
0.941286
0.941286
0.941286
0.941286
0.941286
0.941286
0.941286
0.941287
0.941287
0.941287
0.941287
0.941287
0.941287
0.941287
0.941287
0.941287
0.941287
0.941287
0.941287
0.941287
0.941288
0.941288
0.941288
0.941288
0.941288
0.941288
0.941288
0.941288
0.941288
0.941288
0.941289
0.941289
0.941289
0.941289
0.941289
0.941289
0.941289
0.941289
0.941289
0.941289
0.94129
0.94129
0.94129
0.94129
0.94129
0.94129
0.94129
0.94129
0.94129
0.94129
0.941291
0.941291
0.941291
0.941291
0.941291
0.941291
0.941291
0.941291
0.941291
0.941292
0.941292
0.941292
0.941292
0.941292
0.941292
0.941292
0.941292
0.941293
0.941293
0.941293
0.941293
0.941293
0.941293
0.941293
0.941293
0.941294
0.941294
0.941294
0.941294
0.941294
0.941294
0.941294
0.941294
0.941294
0.941295
0.941295
0.941295
0.941295
0.941295
0.941295
0.941295
0.941296
0.941296
0.941296
0.941296
0.941296
0.941296
0.941296
0.941296
0.941297
0.941297
0.941297
0.941297
0.941297
0.941297
0.941298
0.941298
0.941298
0.941298
0.941298
0.941298
0.941298
0.941299
0.941299
0.941299
0.941299
0.941299
0.941299
0.941299
0.9413
0.9413
0.9413
0.9413
0.9413
0.9413
0.941301
0.941301
0.941301
0.941301
0.941301
0.941301
0.941302
0.941302
0.941302
0.941302
0.941302
0.941302
0.941303
0.941303
0.941303
0.941303
0.941303
0.941303
0.941303
0.941304
0.941304
0.941304
0.941304
0.941304
0.941304
0.941305
0.941305
0.941305
0.941305
0.941305
0.941306
0.941306
0.941306
0.941306
0.941306
0.941306
0.941307
0.941307
0.941307
0.941307
0.941307
0.941308
0.941308
0.941308
0.941308
0.941308
0.941308
0.941309
0.941309
0.941309
0.941309
0.941309
0.94131
0.94131
0.94131
0.94131
0.94131
0.941311
0.941311
0.941311
0.941311
0.941311
0.941312
0.941312
0.941312
0.941312
0.941312
0.941313
0.941313
0.941313
0.941313
0.941313
0.941314
0.941314
0.941314
0.941314
0.941314
0.941315
0.941315
0.941315
0.941315
0.941315
0.941316
0.941316
0.941316
0.941316
0.941316
0.941317
0.941317
0.941317
0.941317
0.941317
0.941318
0.941318
0.941318
0.941318
0.941319
0.941319
0.941319
0.941319
0.941319
0.94132
0.94132
0.94132
0.94132
0.94132
0.941321
0.941321
0.941321
0.941321
0.941322
0.941322
0.941322
0.941322
0.941322
0.941323
0.941323
0.941323
0.941323
0.941324
0.941324
0.941324
0.941324
0.941324
0.941325
0.941325
0.941325
0.941326
0.941326
0.941326
0.941326
0.941327
0.941327
0.941327
0.941327
0.941327
0.941328
0.941328
0.941328
0.941328
0.941329
0.941329
0.941329
0.941329
0.94133
0.94133
0.94133
0.941331
0.941331
0.941331
0.941331
0.941331
0.941332
0.941332
0.941332
0.941332
0.941333
0.941333
0.941333
0.941333
0.941334
0.941334
0.941334
0.941334
0.941335
0.941335
0.941335
0.941336
0.941336
0.941336
0.941336
0.941337
0.941337
0.941337
0.941337
0.941338
0.941338
0.941338
0.941338
0.941339
0.941339
0.941339
0.94134
0.94134
0.94134
0.94134
0.941341
0.941341
0.941341
0.941341
0.941342
0.941342
0.941342
0.941342
0.941343
0.941343
0.941343
0.941344
0.941344
0.941344
0.941345
0.941345
0.941345
0.941345
0.941346
0.941346
0.941346
0.941347
0.941347
0.941347
0.941347
0.941348
0.941348
0.941348
0.941348
0.941349
0.941349
0.94135
0.94135
0.94135
0.94135
0.941351
0.941351
0.941351
0.941351
0.941352
0.941352
0.941353
0.941353
0.941353
0.941353
0.941354
0.941354
0.941354
0.941354
0.941355
0.941355
0.941356
0.941356
0.941356
0.941356
0.941357
0.941357
0.941357
0.941357
0.941358
0.941358
0.941359
0.941359
0.941359
0.941359
0.94136
0.94136
0.94136
0.941361
0.941361
0.941361
0.941362
0.941362
0.941362
0.941363
0.941363
0.941363
0.941363
0.941364
0.941364
0.941365
0.941365
0.941365
0.941365
0.941366
0.941366
0.941367
0.941367
0.941367
0.941368
0.941368
0.941368
0.941368
0.941369
0.941369
0.94137
0.94137
0.94137
0.94137
0.941371
0.941371
0.941372
0.941372
0.941372
0.941373
0.941373
0.941373
0.941373
0.941374
0.941374
0.941375
0.941375
0.941375
0.941376
0.941376
0.941376
0.941377
0.941377
0.941377
0.941378
0.941378
0.941379
0.941379
0.941379
0.94138
0.94138
0.94138
0.94138
0.941381
0.941381
0.941382
0.941382
0.941382
0.941383
0.941383
0.941384
0.941384
0.941384
0.941384
0.941385
0.941385
0.941386
0.941386
0.941386
0.941387
0.941387
0.941388
0.941388
0.941388
0.941389
0.941389
0.941389
0.941389
0.94139
0.94139
0.941391
0.941391
0.941391
0.941392
0.941392
0.941393
0.941393
0.941393
0.941394
0.941394
0.941395
0.941395
0.941395
0.941396
0.941396
0.941397
0.941397
0.941397
0.941397
0.941398
0.941398
0.941399
0.941399
0.941399
0.9414
0.9414
0.941401
0.941401
0.941401
0.941402
0.941402
0.941403
0.941403
0.941403
0.941404
0.941404
0.941405
0.941405
0.941405
0.941406
0.941406
0.941407
0.941407
0.941407
0.941408
0.941408
0.941409
0.941409
0.941409
0.94141
0.94141
0.941411
0.941411
0.941411
0.941412
0.941412
0.941413
0.941413
0.941413
0.941414
0.941414
0.941415
0.941415
0.941415
0.941416
0.941416
0.941417
0.941417
0.941418
0.941418
0.941419
0.941419
0.941419
0.94142
0.94142
0.941421
0.941421
0.941421
0.941422
0.941422
0.941423
0.941423
0.941423
0.941424
0.941424
0.941425
0.941425
0.941425
0.941426
0.941426
0.941427
0.941428
0.941428
0.941428
0.941429
0.941429
0.94143
0.94143
0.94143
0.941431
0.941431
0.941432
0.941432
0.941432
0.941433
0.941434
0.941434
0.941434
0.941435
0.941435
0.941436
0.941436
0.941436
0.941437
0.941437
0.941438
0.941439
0.941439
0.941439
0.94144
0.94144
0.941441
0.941441
0.941441
0.941442
0.941443
0.941443
0.941443
0.941444
0.941444
0.941445
0.941445
0.941445
0.941446
0.941447
0.941447
0.941448
0.941448
0.941448
0.941449
0.941449
0.94145
0.94145
0.941451
0.941451
0.941452
0.941452
0.941452
0.941453
0.941453
0.941454
0.941455
0.941455
0.941455
0.941456
0.941456
0.941457
0.941457
0.941458
0.941458
0.941459
0.941459
0.941459
0.94146
0.941461
0.941461
0.941462
0.941462
0.941462
0.941463
0.941464
0.941464
0.941464
0.941465
0.941465
0.941466
0.941467
0.941467
0.941467
0.941468
0.941468
0.941469
0.941469
0.94147
0.94147
0.941471
0.941471
0.941471
0.941472
0.941473
0.941473
0.941474
0.941474
0.941475
0.941475
0.941476
0.941476
0.941476
0.941477
0.941478
0.941478
0.941479
0.941479
0.94148
0.94148
0.941481
0.941481
0.941481
0.941482
0.941483
0.941483
0.941484
0.941484
0.941485
0.941485
0.941486
0.941487
0.941487
0.941487
0.941488
0.941488
0.941489
0.941489
0.94149
0.94149
0.941491
0.941492
0.941492
0.941492
0.941493
0.941494
0.941494
0.941494
0.941495
0.941496
0.941496
0.941497
0.941497
0.941498
0.941498
0.941499
0.941499
0.941499
0.9415
0.941501
0.941501
0.941502
0.941502
0.941503
0.941503
0.941504
0.941505
0.941505
0.941505
0.941506
0.941507
0.941508
0.941508
0.941508
0.941509
0.94151
0.94151
0.94151
0.941511
0.941512
0.941512
0.941513
0.941513
0.941514
0.941514
0.941515
0.941516
0.941516
0.941516
0.941517
0.941518
0.941518
0.941518
0.941519
0.94152
0.94152
0.941521
0.941521
0.941522
0.941523
0.941523
0.941524
0.941524
0.941525
0.941525
0.941526
0.941527
0.941527
0.941527
0.941528
0.941529
0.941529
0.941529
0.94153
0.941531
0.941532
0.941532
0.941532
0.941533
0.941534
0.941534
0.941535
0.941535
0.941536
0.941537
0.941537
0.941538
0.941538
0.941539
0.941539
0.94154
0.941541
0.941541
0.941542
0.941542
0.941543
0.941544
0.941544
0.941545
0.941545
0.941546
0.941547
0.941547
0.941547
0.941548
0.941549
0.94155
0.94155
0.94155
0.941551
0.941552
0.941553
0.941553
0.941553
0.941554
0.941555
0.941555
0.941555
0.941556
0.941557
0.941558
0.941558
0.941558
0.941559
0.94156
0.941561
0.941561
0.941561
0.941562
0.941563
0.941564
0.941564
0.941564
0.941565
0.941566
0.941567
0.941567
0.941567
0.941568
0.941569
0.94157
0.941571
0.941571
0.941571
0.941572
0.941573
0.941574
0.941574
0.941574
0.941575
0.941576
0.941577
0.941577
0.941577
0.941578
0.941579
0.94158
0.94158
0.941581
0.941581
0.941582
0.941583
0.941583
0.941584
0.941584
0.941585
0.941586
0.941586
0.941587
0.941587
0.941588
0.941589
0.941589
0.94159
0.941591
0.941591
0.941592
0.941592
0.941593
0.941594
0.941595
0.941595
0.941595
0.941596
0.941597
0.941598
0.941599
0.941599
0.941599
0.9416
0.941601
0.941602
0.941602
0.941603
0.941603
0.941604
0.941605
0.941605
0.941606
0.941607
0.941607
0.941608
0.941608
0.941609
0.94161
0.941611
0.941611
0.941611
0.941612
0.941613
0.941614
0.941615
0.941615
0.941616
0.941616
0.941617
0.941618
0.941618
0.941619
0.94162
0.94162
0.941621
0.941621
0.941622
0.941623
0.941624
0.941625
0.941625
0.941625
0.941626
0.941627
0.941628
0.941628
0.941629
0.94163
0.94163
0.941631
0.941631
0.941632
0.941633
0.941634
0.941635
0.941635
0.941635
0.941636
0.941637
0.941638
0.941638
0.941639
0.94164
0.941641
0.941641
0.941641
0.941642
0.941643
0.941644
0.941645
0.941645
0.941646
0.941646
0.941647
0.941648
0.941648
0.941649
0.94165
0.941651
0.941652
0.941652
0.941653
0.941653
0.941654
0.941655
0.941655
0.941656
0.941657
0.941658
0.941659
0.941659
0.941659
0.94166
0.941661
0.941662
0.941662
0.941663
0.941664
0.941665
0.941666
0.941666
0.941666
0.941667
0.941668
0.941669
0.941669
0.94167
0.941671
0.941672
0.941673
0.941673
0.941673
0.941674
0.941675
0.941676
0.941676
0.941677
0.941678
0.941679
0.94168
0.94168
0.941681
0.941682
0.941682
0.941683
0.941683
0.941684
0.941685
0.941686
0.941687
0.941687
0.941688
0.941689
0.94169
0.941691
0.941691
0.941691
0.941692
0.941693
0.941694
0.941694
0.941695
0.941696
0.941697
0.941698
0.941698
0.941699
0.9417
0.941701
0.941701
0.941701
0.941702
0.941703
0.941704
0.941705
0.941705
0.941706
0.941707
0.941708
0.941709
0.941709
0.94171
0.941711
0.941712
0.941713
0.941713
0.941714
0.941714
0.941715
0.941716
0.941716
0.941717
0.941718
0.941719
0.94172
0.94172
0.941721
0.941722
0.941723
0.941724
0.941724
0.941725
0.941726
0.941727
0.941728
0.941728
0.941729
0.94173
0.941731
0.941731
0.941731
0.941732
0.941733
0.941734
0.941735
0.941735
0.941736
0.941737
0.941738
0.941739
0.941739
0.94174
0.941741
0.941742
0.941743
0.941743
0.941744
0.941745
0.941746
0.941747
0.941747
0.941748
0.941749
0.94175
0.941751
0.941751
0.941752
0.941753
0.941754
0.941755
0.941755
0.941756
0.941757
0.941758
0.941759
0.941759
0.94176
0.94176
0.941761
0.941762
0.941762
0.941763
0.941764
0.941765
0.941766
0.941766
0.941767
0.941768
0.941769
0.94177
0.94177
0.941771
0.941772
0.941773
0.941774
0.941774
0.941775
0.941776
0.941777
0.941778
0.941778
0.941779
0.94178
0.941781
0.941782
0.941782
0.941783
0.941784
0.941785
0.941786
0.941786
0.941787
0.941788
0.941789
0.94179
0.94179
0.941791
0.941792
0.941793
0.941795
0.941795
0.941796
0.941797
0.941798
0.941799
0.941799
0.9418
0.941801
0.941802
0.941803
0.941803
0.941804
0.941805
0.941806
0.941807
0.941807
0.941808
0.941809
0.94181
0.941811
0.941811
0.941812
0.941813
0.941814
0.941815
0.941815
0.941816
0.941817
0.941818
0.941819
0.941819
0.94182
0.941821
0.941822
0.941823
0.941823
0.941824
0.941826
0.941827
0.941828
0.941828
0.941829
0.94183
0.941831
0.941832
0.941832
0.941833
0.941834
0.941835
0.941836
0.941836
0.941837
0.941838
0.941839
0.94184
0.94184
0.941841
0.941842
0.941843
0.941845
0.941845
0.941846
0.941847
0.941848
0.941849
0.941849
0.94185
0.941851
0.941852
0.941853
0.941853
0.941854
0.941855
0.941856
0.941857
0.941857
0.941859
0.94186
0.941861
0.941862
0.941862
0.941863
0.941864
0.941865
0.941866
0.941866
0.941867
0.941868
0.941869
0.94187
0.94187
0.941872
0.941873
0.941874
0.941875
0.941875
0.941876
0.941877
0.941878
0.941879
0.941879
0.94188
0.941881
0.941883
0.941884
0.941884
0.941885
0.941886
0.941887
0.941888
0.941888
0.941889
0.94189
0.941891
0.941893
0.941893
0.941894
0.941895
0.941896
0.941897
0.941897
0.941898
0.941899
0.9419
0.941901
0.941901
0.941903
0.941904
0.941905
0.941906
0.941906
0.941907
0.941908
0.941909
0.94191
0.94191
0.941912
0.941913
0.941914
0.941915
0.941915
0.941916
0.941917
0.941918
0.94192
0.94192
0.941921
0.941922
0.941923
0.941924
0.941924
0.941925
0.941926
0.941928
0.941929
0.941929
0.94193
0.941931
0.941932
0.941933
0.941933
0.941934
0.941936
0.941937
0.941938
0.941938
0.941939
0.94194
0.941941
0.941943
0.941943
0.941944
0.941945
0.941946
0.941947
0.941947
0.941948
0.941949
0.941951
0.941952
0.941952
0.941953
0.941954
0.941955
0.941956
0.941956
0.941958
0.941959
0.94196
0.941961
0.941961
0.941962
0.941964
0.941965
0.941966
0.941966
0.941967
0.941968
0.941969
0.941971
0.941971
0.941972
0.941973
0.941974
0.941975
0.941975
0.941977
0.941978
0.941979
0.94198
0.94198
0.941981
0.941983
0.941984
0.941985
0.941985
0.941986
0.941987
0.941988
0.94199
0.94199
0.941991
0.941992
0.941993
0.941994
0.941994
0.941996
0.941997
0.941998
0.941999
0.941999
0.942001
0.942002
0.942003
0.942004
0.942004
0.942005
0.942007
0.942008
0.942009
0.942009
0.94201
0.942012
0.942013
0.942014
0.942014
0.942015
0.942016
0.942018
0.942019
0.942019
0.94202
0.942021
0.942023
0.942024
0.942024
0.942025
0.942026
0.942027
0.942029
0.942029
0.94203
0.942031
0.942032
0.942034
0.942034
0.942035
0.942036
0.942037
0.942039
0.942039
0.94204
0.942041
0.942042
0.942044
0.942044
0.942045
0.942046
0.942047
0.942049
0.942049
0.94205
0.942051
0.942052
0.942054
0.942054
0.942055
0.942056
0.942057
0.942059
0.942059
0.94206
0.942061
0.942062
0.942064
0.942064
0.942065
0.942066
0.942067
0.942069
0.942069
0.94207
0.942071
0.942073
0.942074
0.942074
0.942075
0.942076
0.942078
0.942079
0.942079
0.94208
0.942081
0.942083
0.942084
0.942084
0.942085
0.942087
0.942088
0.942089
0.942089
0.94209
0.942092
0.942093
0.942094
0.942094
0.942096
0.942097
0.942098
0.942099
0.942099
0.942101
0.942102
0.942103
0.942105
0.942105
0.942106
0.942107
0.942109
0.94211
0.94211
0.942111
0.942112
0.942114
0.942115
0.942115
0.942116
0.942118
0.942119
0.94212
0.94212
0.942122
0.942123
0.942124
0.942126
0.942126
0.942127
0.942128
0.94213
0.942131
0.942131
0.942132
0.942133
0.942135
0.942136
0.942136
0.942137
0.942139
0.94214
0.942141
0.942141
0.942143
0.942144
0.942145
0.942147
0.942147
0.942148
0.942149
0.942151
0.942152
0.942152
0.942153
0.942155
0.942156
0.942157
0.942157
0.942159
0.94216
0.942161
0.942163
0.942163
0.942164
0.942165
0.942167
0.942168
0.942168
0.94217
0.942171
0.942172
0.942174
0.942174
0.942175
0.942176
0.942178
0.942179
0.942179
0.94218
0.942182
0.942183
0.942184
0.942184
0.942186
0.942187
0.942189
0.94219
0.94219
0.942191
0.942193
0.942194
0.942195
0.942195
0.942197
0.942198
0.942199
0.942201
0.942201
0.942202
0.942204
0.942205
0.942206
0.942206
0.942208
0.942209
0.94221
0.942212
0.942212
0.942213
0.942215
0.942216
0.942217
0.942217
0.942219
0.94222
0.942222
0.942223
0.942223
0.942224
0.942226
0.942227
0.942229
0.942229
0.94223
0.942231
0.942233
0.942234
0.942234
0.942236
0.942237
0.942238
0.94224
0.94224
0.942241
0.942243
0.942244
0.942245
0.942245
0.942247
0.942248
0.94225
0.942251
0.942251
0.942252
0.942254
0.942255
0.942257
0.942257
0.942258
0.94226
0.942261
0.942262
0.942262
0.942264
0.942265
0.942267
0.942268
0.942268
0.94227
0.942271
0.942272
0.942274
0.942274
0.942275
0.942277
0.942278
0.94228
0.94228
0.942281
0.942282
0.942284
0.942285
0.942285
0.942287
0.942288
0.94229
0.942291
0.942291
0.942292
0.942294
0.942295
0.942297
0.942297
0.942298
0.9423
0.942301
0.942303
0.942303
0.942304
0.942306
0.942307
0.942308
0.942308
0.94231
0.942311
0.942313
0.942314
0.942314
0.942316
0.942317
0.942319
0.94232
0.94232
0.942322
0.942323
0.942324
0.942326
0.942326
0.942327
0.942329
0.94233
0.942332
0.942332
0.942333
0.942335
0.942336
0.942338
0.942338
0.942339
0.942341
0.942342
0.942344
0.942344
0.942345
0.942347
0.942348
0.94235
0.94235
0.942351
0.942353
0.942354
0.942356
0.942356
0.942357
0.942359
0.94236
0.942362
0.942362
0.942363
0.942365
0.942366
0.942368
0.942368
0.942369
0.942371
0.942372
0.942374
0.942374
0.942375
0.942377
0.942378
0.94238
0.94238
0.942381
0.942383
0.942384
0.942386
0.942386
0.942387
0.942389
0.94239
0.942392
0.942392
0.942393
0.942395
0.942396
0.942398
0.942398
0.942399
0.942401
0.942402
0.942404
0.942404
0.942405
0.942407
0.942408
0.94241
0.94241
0.942411
0.942413
0.942415
0.942416
0.942416
0.942418
0.942419
0.942421
0.942422
0.942422
0.942424
0.942425
0.942427
0.942428
0.942428
0.94243
0.942431
0.942433
0.942435
0.942435
0.942436
0.942438
0.942439
0.942441
0.942441
0.942442
0.942444
0.942445
0.942447
0.942447
0.942448
0.94245
0.942452
0.942453
0.942453
0.942455
0.942456
0.942458
0.942459
0.942459
0.942461
0.942463
0.942464
0.942466
0.942466
0.942467
0.942469
0.94247
0.942472
0.942472
0.942474
0.942475
0.942477
0.942478
0.942478
0.94248
0.942481
0.942483
0.942485
0.942485
0.942486
0.942488
0.942489
0.942491
0.942491
0.942493
0.942494
0.942496
0.942497
0.942497
0.942499
0.9425
0.942502
0.942504
0.942504
0.942505
0.942507
0.942508
0.94251
0.94251
0.942512
0.942513
0.942515
0.942516
0.942516
0.942518
0.94252
0.942521
0.942523
0.942523
0.942524
0.942526
0.942528
0.942529
0.942529
0.942531
0.942533
0.942534
0.942536
0.942536
0.942537
0.942539
0.942541
0.942542
0.942542
0.942544
0.942546
0.942547
0.942549
0.942549
0.94255
0.942552
0.942554
0.942555
0.942555
0.942557
0.942559
0.94256
0.942562
0.942562
0.942563
0.942565
0.942567
0.942568
0.942568
0.94257
0.942572
0.942573
0.942575
0.942575
0.942577
0.942578
0.94258
0.942582
0.942582
0.942583
0.942585
0.942586
0.942588
0.942588
0.94259
0.942591
0.942593
0.942595
0.942595
0.942596
0.942598
0.9426
0.942601
0.942601
0.942603
0.942605
0.942606
0.942608
0.942608
0.94261
0.942611
0.942613
0.942615
0.942615
0.942616
0.942618
0.94262
0.942621
0.942621
0.942623
0.942625
0.942626
0.942628
0.942628
0.94263
0.942631
0.942633
0.942635
0.942635
0.942636
0.942638
0.94264
0.942642
0.942642
0.942643
0.942645
0.942647
0.942648
0.942648
0.94265
0.942652
0.942653
0.942655
0.942655
0.942657
0.942658
0.94266
0.942662
0.942662
0.942664
0.942665
0.942667
0.942669
0.942669
0.94267
0.942672
0.942674
0.942676
0.942676
0.942677
0.942679
0.942681
0.942682
0.942682
0.942684
0.942686
0.942688
0.942689
0.942689
0.942691
0.942693
0.942694
0.942696
0.942696
0.942698
0.9427
0.942701
0.942703
0.942703
0.942705
0.942706
0.942708
0.94271
0.94271
0.942712
0.942713
0.942715
0.942717
0.942717
0.942719
0.94272
0.942722
0.942724
0.942724
0.942726
0.942727
0.942729
0.942731
0.942731
0.942733
0.942734
0.942736
0.942738
0.942738
0.94274
0.942741
0.942743
0.942745
0.942745
0.942747
0.942748
0.94275
0.942752
0.942752
0.942754
0.942755
0.942757
0.942759
0.942759
0.942761
0.942762
0.942764
0.942766
0.942766
0.942768
0.942769
0.942771
0.942773
0.942773
0.942775
0.942777
0.942778
0.94278
0.94278
0.942782
0.942784
0.942785
0.942787
0.942787
0.942789
0.942791
0.942793
0.942794
0.942794
0.942796
0.942798
0.9428
0.942802
0.942802
0.942803
0.942805
0.942807
0.942809
0.942809
0.942811
0.942812
0.942814
0.942816
0.942816
0.942818
0.94282
0.942821
0.942823
0.942823
0.942825
0.942827
0.942829
0.94283
0.94283
0.942832
0.942834
0.942836
0.942838
0.942838
0.942839
0.942841
0.942843
0.942845
0.942845
0.942847
0.942848
0.94285
0.942852
0.942852
0.942854
0.942856
0.942858
0.942859
0.942859
0.942861
0.942863
0.942865
0.942867
0.942867
0.942869
0.94287
0.942872
0.942874
0.942874
0.942876
0.942878
0.94288
0.942881
0.942881
0.942883
0.942885
0.942887
0.942889
0.942889
0.942891
0.942892
0.942894
0.942896
0.942896
0.942898
0.9429
0.942902
0.942904
0.942904
0.942905
0.942907
0.942909
0.942911
0.942911
0.942913
0.942915
0.942917
0.942918
0.942918
0.94292
0.942922
0.942924
0.942926
0.942926
0.942928
0.94293
0.942932
0.942933
0.942933
0.942935
0.942937
0.942939
0.942941
0.942941
0.942943
0.942945
0.942946
0.942948
0.942948
0.94295
0.942952
0.942954
0.942956
0.942956
0.942958
0.94296
0.942962
0.942963
0.942963
0.942965
0.942967
0.942969
0.942971
0.942971
0.942973
0.942975
0.942977
0.942979
0.942979
0.942981
0.942982
0.942984
0.942986
0.942986
0.942988
0.94299
0.942992
0.942994
0.942994
0.942996
0.942998
0.943
0.943001
0.943001
0.943003
0.943005
0.943007
0.943009
0.943009
0.943011
0.943013
0.943015
0.943017
0.943017
0.943019
0.943021
0.943023
0.943025
0.943025
0.943026
0.943028
0.94303
0.943032
0.943032
0.943034
0.943036
0.943038
0.94304
0.94304
0.943042
0.943044
0.943046
0.943048
0.943048
0.94305
0.943052
0.943054
0.943056
0.943056
0.943057
0.943059
0.943061
0.943063
0.943063
0.943065
0.943067
0.943069
0.943071
0.943071
0.943073
0.943075
0.943077
0.943079
0.943079
0.943081
0.943083
0.943085
0.943087
0.943087
0.943089
0.943091
0.943093
0.943095
0.943095
0.943097
0.943099
0.943101
0.943103
0.943103
0.943104
0.943106
0.943108
0.94311
0.94311
0.943112
0.943114
0.943116
0.943118
0.943118
0.94312
0.943122
0.943124
0.943126
0.943126
0.943128
0.94313
0.943132
0.943134
0.943134
0.943136
0.943138
0.94314
0.943142
0.943142
0.943144
0.943146
0.943148
0.94315
0.94315
0.943152
0.943154
0.943156
0.943158
0.943158
0.94316
0.943162
0.943164
0.943166
0.943166
0.943168
0.94317
0.943172
0.943174
0.943174
0.943176
0.943178
0.94318
0.943182
0.943182
0.943184
0.943186
0.943188
0.94319
0.94319
0.943192
0.943194
0.943196
0.943199
0.943199
0.943201
0.943203
0.943205
0.943207
0.943207
0.943209
0.943211
0.943213
0.943215
0.943215
0.943217
0.943219
0.943221
0.943223
0.943223
0.943225
0.943227
0.943229
0.943231
0.943231
0.943233
0.943235
0.943237
0.943239
0.943239
0.943241
0.943243
0.943245
0.943248
0.943248
0.94325
0.943252
0.943254
0.943256
0.943256
0.943258
0.94326
0.943262
0.943264
0.943264
0.943266
0.943268
0.94327
0.943272
0.943272
0.943274
0.943276
0.943278
0.943281
0.943281
0.943283
0.943285
0.943287
0.943289
0.943289
0.943291
0.943293
0.943295
0.943297
0.943297
0.943299
0.943301
0.943303
0.943306
0.943306
0.943308
0.94331
0.943312
0.943314
0.943314
0.943316
0.943318
0.94332
0.943322
0.943322
0.943324
0.943326
0.943329
0.943331
0.943331
0.943333
0.943335
0.943337
0.943339
0.943339
0.943341
0.943343
0.943345
0.943348
0.943348
0.94335
0.943352
0.943354
0.943356
0.943356
0.943358
0.94336
0.943362
0.943364
0.943364
0.943367
0.943369
0.943371
0.943373
0.943373
0.943375
0.943377
0.943379
0.943381
0.943381
0.943384
0.943386
0.943388
0.94339
0.94339
0.943392
0.943394
0.943396
0.943399
0.943399
0.943401
0.943403
0.943405
0.943407
0.943407
0.943409
0.943411
0.943414
0.943416
0.943416
0.943418
0.94342
0.943422
0.943424
0.943424
0.943426
0.943429
0.943431
0.943433
0.943433
0.943435
0.943437
0.943439
0.943442
0.943442
0.943444
0.943446
0.943448
0.94345
0.94345
0.943452
0.943455
0.943457
0.943459
0.943459
0.943461
0.943463
0.943465
0.943468
0.943468
0.94347
0.943472
0.943474
0.943476
0.943476
0.943479
0.943481
0.943483
0.943485
0.943485
0.943487
0.94349
0.943492
0.943494
0.943494
0.943496
0.943498
0.9435
0.943503
0.943503
0.943505
0.943507
0.943509
0.943511
0.943511
0.943514
0.943516
0.943518
0.94352
0.94352
0.943523
0.943525
0.943527
0.943529
0.943529
0.943531
0.943534
0.943536
0.943538
0.943538
0.94354
0.943542
0.943545
0.943547
0.943547
0.943549
0.943551
0.943554
0.943556
0.943556
0.943558
0.94356
0.943562
0.943565
0.943565
0.943567
0.943569
0.943571
0.943574
0.943574
0.943576
0.943578
0.94358
0.943583
0.943583
0.943585
0.943587
0.943589
0.943592
0.943592
0.943594
0.943596
0.943598
0.943601
0.943601
0.943603
0.943605
0.943607
0.94361
0.94361
0.943612
0.943614
0.943616
0.943619
0.943619
0.943621
0.943623
0.943625
0.943628
0.943628
0.94363
0.943632
0.943634
0.943637
0.943637
0.943639
0.943641
0.943643
0.943646
0.943646
0.943648
0.94365
0.943653
0.943655
0.943655
0.943657
0.943659
0.943662
0.943664
0.943664
0.943666
0.943669
0.943671
0.943673
0.943673
0.943675
0.943678
0.94368
0.943682
0.943682
0.943685
0.943687
0.943689
0.943691
0.943691
0.943694
0.943696
0.943698
0.943701
0.943701
0.943703
0.943705
0.943708
0.94371
0.94371
0.943712
0.943715
0.943717
0.943719
0.943719
0.943721
0.943724
0.943726
0.943728
0.943728
0.943731
0.943733
0.943735
0.943738
0.943738
0.94374
0.943742
0.943745
0.943747
0.943747
0.943749
0.943752
0.943754
0.943756
0.943756
0.943759
0.943761
0.943763
0.943766
0.943766
0.943768
0.94377
0.943773
0.943775
0.943775
0.943777
0.94378
0.943782
0.943784
0.943784
0.943787
0.943789
0.943791
0.943794
0.943794
0.943796
0.943798
0.943801
0.943803
0.943803
0.943806
0.943808
0.94381
0.943813
0.943813
0.943815
0.943817
0.94382
0.943822
0.943822
0.943824
0.943827
0.943829
0.943832
0.943832
0.943834
0.943836
0.943839
0.943841
0.943841
0.943843
0.943846
0.943848
0.943851
0.943851
0.943853
0.943855
0.943858
0.94386
0.94386
0.943862
0.943865
0.943867
0.94387
0.94387
0.943872
0.943874
0.943877
0.943879
0.943879
0.943882
0.943884
0.943886
0.943889
0.943889
0.943891
0.943894
0.943896
0.943898
0.943898
0.943901
0.943903
0.943906
0.943908
0.943908
0.94391
0.943913
0.943915
0.943918
0.943918
0.94392
0.943923
0.943925
0.943927
0.943927
0.94393
0.943932
0.943935
0.943937
0.943937
0.943939
0.943942
0.943944
0.943947
0.943947
0.943949
0.943952
0.943954
0.943956
0.943956
0.943959
0.943961
0.943964
0.943966
0.943966
0.943969
0.943971
0.943974
0.943976
0.943976
0.943978
0.943981
0.943983
0.943986
0.943986
0.943988
0.943991
0.943993
0.943996
0.943996
0.943998
0.944
0.944003
0.944005
0.944005
0.944008
0.94401
0.944013
0.944015
0.944015
0.944018
0.94402
0.944023
0.944025
0.944025
0.944028
0.94403
0.944033
0.944035
0.944035
0.944037
0.94404
0.944042
0.944045
0.944045
0.944047
0.94405
0.944052
0.944055
0.944055
0.944057
0.94406
0.944062
0.944065
0.944065
0.944067
0.94407
0.944072
0.944075
0.944075
0.944077
0.94408
0.944082
0.944085
0.944085
0.944087
0.94409
0.944092
0.944095
0.944095
0.944097
0.9441
0.944102
0.944105
0.944105
0.944107
0.94411
0.944112
0.944115
0.944115
0.944117
0.94412
0.944122
0.944125
0.944125
0.944127
0.94413
0.944132
0.944135
0.944135
0.944138
0.94414
0.944143
0.944145
0.944145
0.944148
0.94415
0.944153
0.944155
0.944155
0.944158
0.94416
0.944163
0.944165
0.944165
0.944168
0.94417
0.944173
0.944176
0.944176
0.944178
0.944181
0.944183
0.944186
0.944186
0.944188
0.944191
0.944193
0.944196
0.944196
0.944198
0.944201
0.944204
0.944206
0.944206
0.944209
0.944211
0.944214
0.944216
0.944216
0.944219
0.944222
0.944224
0.944227
0.944227
0.944229
0.944232
0.944234
0.944237
0.944237
0.94424
0.944242
0.944245
0.944247
0.944247
0.94425
0.944252
0.944255
0.944258
0.944258
0.94426
0.944263
0.944265
0.944268
0.944268
0.944271
0.944273
0.944276
0.944278
0.944278
0.944281
0.944284
0.944286
0.944289
0.944289
0.944291
0.944294
0.944297
0.944299
0.944299
0.944302
0.944304
0.944307
0.94431
0.94431
0.944312
0.944315
0.944317
0.94432
0.94432
0.944323
0.944325
0.944328
0.94433
0.94433
0.944333
0.944336
0.944338
0.944341
0.944341
0.944344
0.944346
0.944349
0.944351
0.944351
0.944354
0.944357
0.944359
0.944362
0.944362
0.944365
0.944367
0.94437
0.944373
0.944373
0.944375
0.944378
0.94438
0.944383
0.944383
0.944386
0.944388
0.944391
0.944394
0.944394
0.944396
0.944399
0.944402
0.944404
0.944404
0.944407
0.94441
0.944412
0.944415
0.944415
0.944418
0.94442
0.944423
0.944426
0.944426
0.944428
0.944431
0.944434
0.944436
0.944436
0.944439
0.944442
0.944444
0.944447
0.944447
0.94445
0.944452
0.944455
0.944458
0.944458
0.94446
0.944463
0.944466
0.944468
0.944468
0.944471
0.944474
0.944477
0.944479
0.944479
0.944482
0.944485
0.944487
0.94449
0.94449
0.944493
0.944495
0.944498
0.944501
0.944501
0.944503
0.944506
0.944509
0.944512
0.944512
0.944514
0.944517
0.94452
0.944522
0.944522
0.944525
0.944528
0.944531
0.944533
0.944533
0.944536
0.944539
0.944541
0.944544
0.944544
0.944547
0.94455
0.944552
0.944555
0.944555
0.944558
0.944561
0.944563
0.944566
0.944566
0.944569
0.944571
0.944574
0.944577
0.944577
0.94458
0.944582
0.944585
0.944588
0.944588
0.944591
0.944593
0.944596
0.944599
0.944599
0.944602
0.944604
0.944607
0.94461
0.94461
0.944613
0.944615
0.944618
0.944621
0.944621
0.944624
0.944626
0.944629
0.944632
0.944632
0.944635
0.944637
0.94464
0.944643
0.944643
0.944646
0.944649
0.944651
0.944654
0.944654
0.944657
0.94466
0.944662
0.944665
0.944665
0.944668
0.944671
0.944674
0.944676
0.944676
0.944679
0.944682
0.944685
0.944688
0.944688
0.94469
0.944693
0.944696
0.944699
0.944699
0.944701
0.944704
0.944707
0.94471
0.94471
0.944713
0.944715
0.944718
0.944721
0.944721
0.944724
0.944727
0.944729
0.944732
0.944732
0.944735
0.944738
0.944741
0.944744
0.944744
0.944746
0.944749
0.944752
0.944755
0.944755
0.944758
0.94476
0.944763
0.944766
0.944766
0.944769
0.944772
0.944775
0.944777
0.944777
0.94478
0.944783
0.944786
0.944789
0.944789
0.944792
0.944794
0.944797
0.9448
0.9448
0.944803
0.944806
0.944809
0.944812
0.944812
0.944814
0.944817
0.94482
0.944823
0.944823
0.944826
0.944829
0.944831
0.944834
0.944834
0.944837
0.94484
0.944843
0.944846
0.944846
0.944849
0.944852
0.944854
0.944857
0.944857
0.94486
0.944863
0.944866
0.944869
0.944869
0.944872
0.944874
0.944877
0.94488
0.94488
0.944883
0.944886
0.944889
0.944892
0.944892
0.944895
0.944898
0.9449
0.944903
0.944903
0.944906
0.944909
0.944912
0.944915
0.944915
0.944918
0.944921
0.944924
0.944926
0.944926
0.944929
0.944932
0.944935
0.944938
0.944938
0.944941
0.944944
0.944947
0.94495
0.94495
0.944953
0.944956
0.944958
0.944961
0.944961
0.944964
0.944967
0.94497
0.944973
0.944973
0.944976
0.944979
0.944982
0.944985
0.944985
0.944988
0.944991
0.944994
0.944996
0.944996
0.944999
0.945002
0.945005
0.945008