<?xml version="1.0"?>
<VTKFile type="UnstructuredGrid" version="0.1" byte_order="LittleEndian">
<UnstructuredGrid>
<Piece NumberOfPoints="5000" NumberOfCells="4000">
<PointData Scalars="Reaction 0">
<DataArray type="Float32" Name="Reaction 0" format="ascii">
0.66623
0.66623
0.66623
0.66623
0.66623
0.66623
0.66623
0.66623
0.666231
0.666231
0.666231
0.666231
0.666231
0.666231
0.666231
0.666231
0.666231
0.666231
0.666231
0.666231
0.666231
0.666231
0.666231
0.666231
0.666231
0.666231
0.666231
0.666232
0.666232
0.666232
0.666232
0.666232
0.666232
0.666232
0.666232
0.666232
0.666232
0.666232
0.666233
0.666233
0.666233
0.666233
0.666233
0.666233
0.666233
0.666233
0.666234
0.666234
0.666234
0.666234
0.666234
0.666234
0.666234
0.666235
0.666235
0.666235
0.666235
0.666235
0.666235
0.666236
0.666236
0.666236
0.666236
0.666236
0.666237
0.666237
0.666237
0.666237
0.666237
0.666238
0.666238
0.666238
0.666238
0.666238
0.666239
0.666239
0.666239
0.666239
0.666239
0.66624
0.66624
0.66624
0.66624
0.666241
0.666241
0.666241
0.666241
0.666242
0.666242
0.666242
0.666242
0.666242
0.666243
0.666243
0.666243
0.666243
0.666244
0.666244
0.666245
0.666245
0.666245
0.666245
0.666246
0.666246
0.666246
0.666246
0.666247
0.666247
0.666248
0.666248
0.666248
0.666248
0.666249
0.666249
0.66625
0.66625
0.66625
0.66625
0.666251
0.666251
0.666251
0.666252
0.666252
0.666253
0.666253
0.666253
0.666254
0.666254
0.666254
0.666255
0.666255
0.666255
0.666256
0.666256
0.666257
0.666257
0.666257
0.666258
0.666258
0.666259
0.666259
0.666259
0.66626
0.66626
0.666261
0.666261
0.666261
0.666262
0.666262
0.666263
0.666263
0.666264
0.666264
0.666265
0.666265
0.666265
0.666266
0.666266
0.666267
0.666268
0.666268
0.666268
0.666269
0.666269
0.66627
0.66627
0.66627
0.666271
0.666272
0.666272
0.666272
0.666273
0.666274
0.666274
0.666275
0.666275
0.666275
0.666276
0.666277
0.666277
0.666277
0.666278
0.666279
0.666279
0.66628
0.66628
0.666281
0.666281
0.666282
0.666283
0.666283
0.666283
0.666284
0.666285
0.666286
0.666286
0.666286
0.666287
0.666288
0.666288
0.666288
0.666289
0.66629
0.666291
0.666291
0.666291
0.666292
0.666293
0.666294
0.666294
0.666294
0.666295
0.666296
0.666297
0.666297
0.666297
0.666298
0.666299
0.6663
0.666301
0.666301
0.666301
0.666302
0.666303
0.666304
0.666304
0.666305
0.666305
0.666306
0.666307
0.666307
0.666308
0.666309
0.66631
0.66631
0.66631
0.666311
0.666312
0.666313
0.666314
0.666314
0.666315
0.666316
0.666317
0.666317
0.666317
0.666318
0.666319
0.66632
0.666321
0.666321
0.666322
0.666323
0.666324
0.666325
0.666325
0.666326
0.666327
0.666327
0.666328
0.666328
0.666329
0.66633
0.666331
0.666332
0.666332
0.666333
0.666334
0.666335
0.666336
0.666336
0.666337
0.666338
0.666339
0.66634
0.66634
0.666341
0.666342
0.666343
0.666344
0.666344
0.666345
0.666346
0.666347
0.666348
0.666348
0.666349
0.66635
0.666351
0.666352
0.666352
0.666353
0.666354
0.666356
0.666357
0.666357
0.666358
0.666359
0.66636
0.666361
0.666361
0.666362
0.666363
0.666364
0.666365
0.666365
0.666366
0.666368
0.666369
0.66637
0.66637
0.666371
0.666372
0.666373
0.666374
0.666374
0.666375
0.666377
0.666378
0.666379
0.666379
0.66638
0.666381
0.666382
0.666384
0.666384
0.666385
0.666386
0.666387
0.666388
0.666388
0.66639
0.666391
0.666392
0.666393
0.666393
0.666394
0.666396
0.666397
0.666398
0.666398
0.666399
0.666401
0.666402
0.666403
0.666403
0.666404
0.666406
0.666407
0.666408
0.666408
0.666409
0.666411
0.666412
0.666413
0.666413
0.666414
0.666416
0.666417
0.666418
0.666418
0.66642
0.666421
0.666422
0.666424
0.666424
0.666425
0.666426
0.666428
0.666429
0.666429
0.66643
0.666432
0.666433
0.666434
0.666434
0.666436
0.666437
0.666438
0.66644
0.66644
0.666441
0.666443
0.666444
0.666445
0.666445
0.666447
0.666448
0.66645
0.666451
0.666451
0.666452
0.666454
0.666455
0.666457
0.666457
0.666458
0.66646
0.666461
0.666463
0.666463
0.666464
0.666465
0.666467
0.666468
0.666468
0.66647
0.666471
0.666473
0.666474
0.666474
0.666476
0.666477
0.666479
0.66648
0.66648
0.666482
0.666483
0.666485
0.666486
0.666486
0.666488
0.666489
0.666491
0.666492
0.666492
0.666494
0.666496
0.666497
0.666499
0.666499
0.6665
0.666502
0.666503
0.666505
0.666505
0.666507
0.666508
0.66651
0.666511
0.666511
0.666513
0.666515
0.666516
0.666518
0.666518
0.666519
0.666521
0.666523
0.666524
0.666524
0.666526
0.666528
0.666529
0.666531
0.666531
0.666533
0.666534
0.666536
0.666537
0.666537
0.666539
0.666541
0.666543
0.666544
0.666544
0.666546
0.666548
0.666549
0.666551
0.666551
0.666553
0.666554
0.666556
0.666558
0.666558
0.66656
0.666561
0.666563
0.666565
0.666565
0.666567
0.666568
0.66657
0.666572
0.666572
0.666574
0.666575
0.666577
0.666579
0.666579
0.666581
0.666582
0.666584
0.666586
0.666586
0.666588
0.66659
0.666591
0.666593
0.666593
0.666595
0.666597
0.666599
0.666601
0.666601
0.666602
0.666604
0.666606
0.666608
0.666608
0.66661
0.666612
0.666614
0.666615
0.666615
0.666617
0.666619
0.666621
0.666623
0.666623
0.666625
0.666627
0.666629
0.666631
0.666631
0.666632
0.666634
0.666636
0.666638
0.666638
0.66664
0.666642
0.666644
0.666646
0.666646
0.666648
0.66665
0.666652
0.666654
0.666654
0.666656
0.666658
0.66666
0.666662
0.666662
0.666664
0.666666
0.666668
0.66667
0.66667
0.666672
0.666674
0.666676
0.666678
0.666678
0.66668
0.666682
0.666684
0.666686
0.666686
0.666688
0.66669
0.666692
0.666694
0.666694
0.666696
0.666698
0.6667
0.666702
0.666702
0.666704
0.666706
0.666709
0.666711
0.666711
0.666713
0.666715
0.666717
0.666719
0.666719
0.666721
0.666723
0.666725
0.666727
0.666727
0.66673
0.666732
0.666734
0.666736
0.666736
0.666738
0.66674
0.666743
0.666745
0.666745
0.666747
0.666749
0.666751
0.666753
0.666753
0.666756
0.666758
0.66676
0.666762
0.666762
0.666764
0.666767
0.666769
0.666771
0.666771
0.666773
0.666775
0.666778
0.66678
0.66678
0.666782
0.666784
0.666787
0.666789
0.666789
0.666791
0.666793
0.666796
0.666798
0.666798
0.6668
0.666803
0.666805
0.666807
0.666807
0.666809
0.666812
0.666814
0.666816
0.666816
0.666819
0.666821
0.666823
0.666826
0.666826
0.666828
0.66683
0.666833
0.666835
0.666835
0.666837
0.66684
0.666842
0.666844
0.666844
0.666847
0.666849
0.666852
0.666854
0.666854
0.666856
0.666859
0.666861
0.666864
0.666864
0.666866
0.666868
0.666871
0.666873
0.666873
0.666876
0.666878
0.66688
0.666883
0.666883
0.666885
0.666888
0.66689
0.666893
0.666893
0.666895
0.666898
0.6669
0.666903
0.666903
0.666905
0.666908
0.66691
0.666913
0.666913
0.666915
0.666918
0.66692
0.666923
0.666923
0.666925
0.666928
0.66693
0.666933
0.666933
0.666935
0.666938
0.66694
0.666943
0.666943
0.666945
0.666948
0.666951
0.666953
0.666953
0.666956
0.666958
0.666961
0.666963
0.666963
0.666966
0.666969
0.666971
0.666974
0.666974
0.666976
0.666979
0.666982
0.666984
0.666984
0.666987
0.66699
0.666992
0.666995
0.666995
0.666997
0.667
0.667003
0.667005
0.667005
0.667008
0.667011
0.667013
0.667016
0.667016
0.667019
0.667022
0.667024
0.667027
0.667027
0.66703
0.667032
0.667035
0.667038
0.667038
0.66704
0.667043
0.667046
0.667049
0.667049
0.667051
0.667054
0.667057
0.66706
0.66706
0.667062
0.667065
0.667068
0.667071
0.667071
0.667074
0.667076
0.667079
0.667082
0.667082
0.667085
0.667087
0.66709
0.667093
0.667093
0.667096
0.667099
0.667102
0.667104
0.667104
0.667107
0.66711
0.667113
0.667116
0.667116
0.667119
0.667121
0.667124
0.667127
0.667127
0.66713
0.667133
0.667136
0.667139
0.667139
0.667142
0.667144
0.667147
0.66715
0.66715
0.667153
0.667156
0.667159
0.667162
0.667162
0.667165
0.667168
0.667171
0.667174
0.667174
0.667177
0.66718
0.667182
0.667185
0.667185
0.667188
0.667191
0.667194
0.667197
0.667197
0.6672
0.667203
0.667206
0.667209
0.667209
0.667212
0.667215
0.667218
0.667221
0.667221
0.667224
0.667227
0.66723
0.667233
0.667233
0.667236
0.667239
0.667243
0.667246
0.667246
0.667249
0.667252
0.667255
0.667258
0.667258
0.667261
0.667264
0.667267
0.66727
0.66727
0.667273
0.667276
0.667279
0.667283
0.667283
0.667286
0.667289
0.667292
0.667295
0.667295
0.667298
0.667301
0.667304
0.667308
0.667308
0.667311
0.667314
0.667317
0.66732
0.66732
0.667323
0.667327
0.66733
0.667333
0.667333
0.667336
0.667339
0.667342
0.667346
0.667346
0.667349
0.667352
0.667355
0.667359
0.667359
0.667362
0.667365
0.667368
0.667371
0.667371
0.667375
0.667378
0.667381
0.667384
0.667384
0.667388
0.667391
0.667394
0.667398
0.667398
0.667401
0.667404
0.667407
0.667411
0.667411
0.667414
0.667417
0.667421
0.667424
0.667424
0.667427
0.667431
0.667434
0.667437
0.667437
0.667441
0.667444
0.667447
0.667451
0.667451
0.667454
0.667457
0.667461
0.667464
0.667464
0.667467
0.667471
0.667474
0.667478
0.667478
0.667481
0.667484
0.667488
0.667491
0.667491
0.667495
0.667498
0.667501
0.667505
0.667505
0.667508
0.667512
0.667515
0.667519
0.667519
0.667522
0.667525
0.667529
0.667532
0.667532
0.667536
0.667539
0.667543
0.667546
0.667546
0.66755
0.667553
0.667557
0.66756
0.66756
0.667564
0.667567
0.667571
0.667574
0.667574
0.667578
0.667581
0.667585
0.667588
0.667588
0.667592
0.667596
0.667599
0.667603
0.667603
0.667606
0.66761
0.667613
0.667617
0.667617
0.667621
0.667624
0.667628
0.667631
0.667631
0.667635
0.667638
0.667642
0.667646
0.667646
0.667649
0.667653
0.667657
0.66766
0.66766
0.667664
0.667667
0.667671
0.667675
0.667675
0.667678
0.667682
0.667686
0.667689
0.667689
0.667693
0.667697
0.6677
0.667704
0.667704
0.667708
0.667712
0.667715
0.667719
0.667719
0.667723
0.667726
0.66773
0.667734
0.667734
0.667738
0.667741
0.667745
0.667749
0.667749
0.667753
0.667756
0.66776
0.667764
0.667764
0.667768
0.667771
0.667775
0.667779
0.667779
0.667783
0.667787
0.66779
0.667794
0.667794
0.667798
0.667802
0.667806
0.667809
0.667809
0.667813
0.667817
0.667821
0.667825
0.667825
0.667829
0.667832
0.667836
0.66784
0.66784
0.667844
0.667848
0.667852
0.667856
0.667856
0.667859
0.667863
0.667867
0.667871
0.667871
0.667875
0.667879
0.667883
0.667887
0.667887
0.667891
0.667895
0.667899
0.667903
0.667903
0.667906
0.66791
0.667914
0.667918
0.667918
0.667922
0.667926
0.66793
0.667934
0.667934
0.667938
0.667942
0.667946
0.66795
0.66795
0.667954
0.667958
0.667962
0.667966
0.667966
0.66797
0.667974
0.667978
0.667982
0.667982
0.667986
0.66799
0.667994
0.667998
0.667998
0.668002
0.668006
0.66801
0.668015
0.668015
0.668019
0.668023
0.668027
0.668031
0.668031
0.668035
0.668039
0.668043
0.668047
0.668047
0.668051
0.668056
0.66806
0.668064
0.668064
0.668068
0.668072
0.668076
0.66808
0.66808
0.668084
0.668089
0.668093
0.668097
0.668097
0.668101
0.668105
0.668109
0.668114
0.668114
0.668118
0.668122
0.668126
0.66813
0.66813
0.668135
0.668139
0.668143
0.668147
0.668147
0.668151
0.668156
0.66816
0.668164
0.668164
0.668168
0.668173
0.668177
0.668181
0.668181
0.668185
0.66819
0.668194
0.668198
0.668198
0.668203
0.668207
0.668211
0.668215
0.668215
0.66822
0.668224
0.668228
0.668233
0.668233
0.668237
0.668241
0.668246
0.66825
0.66825
0.668254
0.668259
0.668263
0.668267
0.668267
0.668272
0.668276
0.66828
0.668285
0.668285
0.668289
0.668294
0.668298
0.668302
0.668302
0.668307
0.668311
0.668316
0.66832
0.66832
0.668324
0.668329
0.668333
0.668338
0.668338
0.668342
0.668347
0.668351
0.668355
0.668355
0.66836
0.668364
0.668369
0.668373
0.668373
0.668378
0.668382
0.668387
0.668391
0.668391
0.668396
0.6684
0.668405
0.668409
0.668409
0.668414
0.668418
0.668423
0.668427
0.668427
0.668432
0.668436
0.668441
0.668445
0.668445
0.66845
0.668455
0.668459
0.668464
0.668464
0.668468
0.668473
0.668477
0.668482
0.668482
0.668487
0.668491
0.668496
0.6685
0.6685
0.668505
0.66851
0.668514
0.668519
0.668519
0.668523
0.668528
0.668533
0.668537
0.668537
0.668542
0.668547
0.668551
0.668556
0.668556
0.668561
0.668565
0.66857
0.668575
0.668575
0.668579
0.668584
0.668589
0.668593
0.668593
0.668598
0.668603
0.668608
0.668612
0.668612
0.668617
0.668622
0.668627
0.668631
0.668631
0.668636
0.668641
0.668645
0.66865
0.66865
0.668655
0.66866
0.668665
0.668669
0.668669
0.668674
0.668679
0.668684
0.668688
0.668688
0.668693
0.668698
0.668703
0.668708
0.668708
0.668713
0.668717
0.668722
0.668727
0.668727
0.668732
0.668737
0.668742
0.668746
0.668746
0.668751
0.668756
0.668761
0.668766
0.668766
0.668771
0.668776
0.668781
0.668785
0.668785
0.66879
0.668795
0.6688
0.668805
0.668805
0.66881
0.668815
0.66882
0.668825
0.668825
0.66883
0.668835
0.66884
0.668845
0.668845
0.668849
0.668854
0.668859
0.668864
0.668864
0.668869
0.668874
0.668879
0.668884
0.668884
0.668889
0.668894
0.668899
0.668904
0.668904
0.668909
0.668914
0.668919
0.668924
0.668924
0.668929
0.668935
0.66894
0.668945
0.668945
0.66895
0.668955
0.66896
0.668965
0.668965
0.66897
0.668975
0.66898
0.668985
0.668985
0.66899
0.668995
0.669
0.669006
0.669006
0.669011
0.669016
0.669021
0.669026
0.669026
0.669031
0.669036
0.669041
0.669047
0.669047
0.669052
0.669057
0.669062
0.669067
0.669067
0.669072
0.669078
0.669083
0.669088
0.669088
0.669093
0.669098
0.669104
0.669109
0.669109
0.669114
0.669119
0.669124
0.66913
0.66913
0.669135
0.66914
0.669145
0.669151
0.669151
0.669156
0.669161
0.669166
0.669172
0.669172
0.669177
0.669182
0.669187
0.669193
0.669193
0.669198
0.669203
0.669209
0.669214
0.669214
0.669219
0.669225
0.66923
0.669235
0.669235
0.669241
0.669246
0.669251
0.669257
0.669257
0.669262
0.669267
0.669273
0.669278
0.669278
0.669283
0.669289
0.669294
0.669299
0.669299
0.669305
0.66931
0.669316
0.669321
0.669321
0.669326
0.669332
0.669337
0.669343
0.669343
0.669348
0.669353
0.669359
0.669364
0.669364
0.66937
0.669375
0.669381
0.669386
0.669386
0.669392
0.669397
0.669403
0.669408
0.669408
0.669414
0.669419
0.669425
0.66943
0.66943
0.669436
0.669441
0.669447
0.669452
0.669452
0.669458
0.669463
0.669469
0.669474
0.669474
0.66948
0.669485
0.669491
0.669496
0.669496
0.669502
0.669508
0.669513
0.669519
0.669519
0.669524
0.66953
0.669536
0.669541
0.669541
0.669547
0.669552
0.669558
0.669564
0.669564
0.669569
0.669575
0.66958
0.669586
0.669586
0.669592
0.669597
0.669603
0.669609
0.669609
0.669614
0.66962
0.669626
0.669631
0.669631
0.669637
0.669643
0.669648
0.669654
0.669654
0.66966
0.669666
0.669671
0.669677
0.669677
0.669683
0.669688
0.669694
0.6697
0.6697
0.669706
0.669711
0.669717
0.669723
0.669723
0.669729
0.669734
0.66974
0.669746
0.669746
0.669752
0.669758
0.669763
0.669769
0.669769
0.669775
0.669781
0.669787
0.669792
0.669792
0.669798
0.669804
0.66981
0.669816
0.669816
0.669822
0.669827
0.669833
0.669839
0.669839
0.669845
0.669851
0.669857
0.669863
0.669863
0.669868
0.669874
0.66988
0.669886
0.669886
0.669892
0.669898
0.669904
0.66991
0.66991
0.669916
0.669922
0.669928
0.669934
0.669934
0.669939
0.669945
0.669951
0.669957
0.669957
0.669963
0.669969
0.669975
0.669981
0.669981
0.669987
0.669993
0.669999
0.670005
0.670005
0.670011
0.670017
0.670023
0.670029
0.670029
0.670035
0.670041
0.670047
0.670053
0.670053
0.670059
0.670065
0.670071
0.670078
0.670078
0.670084
0.67009
0.670096
0.670102
0.670102
0.670108
0.670114
0.67012
0.670126
0.670126
0.670132
0.670138
0.670144
0.670151
0.670151
0.670157
0.670163
0.670169
0.670175
0.670175
0.670181
0.670187
0.670194
0.6702
0.6702
0.670206
0.670212
0.670218
0.670224
0.670224
0.670231
0.670237
0.670243
0.670249
0.670249
0.670255
0.670262
0.670268
0.670274
0.670274
0.67028
0.670286
0.670293
0.670299
0.670299
0.670305
0.670311
0.670318
0.670324
0.670324
0.67033
0.670336
0.670343
0.670349
0.670349
0.670355
0.670362
0.670368
0.670374
0.670374
0.67038
0.670387
0.670393
0.670399
0.670399
0.670406
0.670412
0.670418
0.670425
0.670425
0.670431
0.670437
0.670444
0.67045
0.67045
0.670457
0.670463
0.670469
0.670476
0.670476
0.670482
0.670488
0.670495
0.670501
0.670501
0.670508
0.670514
0.67052
0.670527
0.670527
0.670533
0.67054
0.670546
0.670553
0.670553
0.670559
0.670565
0.670572
0.670578
0.670578
0.670585
0.670591
0.670598
0.670604
0.670604
0.670611
0.670617
0.670624
0.67063
0.67063
0.670637
0.670643
0.67065
0.670656
0.670656
0.670663
0.670669
0.670676
0.670682
0.670682
0.670689
0.670696
0.670702
0.670709
0.670709
0.670715
0.670722
0.670728
0.670735
0.670735
0.670742
0.670748
0.670755
0.670761
0.670761
0.670768
0.670775
0.670781
0.670788
0.670788
0.670794
0.670801
0.670808
0.670814
0.670814
0.670821
0.670828
0.670834
0.670841
0.670841
0.670848
0.670854
0.670861
0.670868
0.670868
0.670874
0.670881
0.670888
0.670894
0.670894
0.670901
0.670908
0.670915
0.670921
0.670921
0.670928
0.670935
0.670942
0.670948
0.670948
0.670955
0.670962
0.670969
0.670975
0.670975
0.670982
0.670989
0.670996
0.671003
0.671003
0.671009
0.671016
0.671023
0.67103
0.67103
0.671037
0.671043
0.67105
0.671057
0.671057
0.671064
0.671071
0.671077
0.671084
0.671084
0.671091
0.671098
0.671105
0.671112
0.671112
0.671119
0.671126
0.671132
0.671139
0.671139
0.671146
0.671153
0.67116
0.671167
0.671167
0.671174
0.671181
0.671188
0.671195
0.671195
0.671202
0.671209
0.671215
0.671222
0.671222
0.671229
0.671236
0.671243
0.67125
0.67125
0.671257
0.671264
0.671271
0.671278
0.671278
0.671285
0.671292
0.671299
0.671306
0.671306
0.671313
0.67132
0.671327
0.671334
0.671334
0.671341
0.671348
0.671355
0.671363
0.671363
0.67137
0.671377
0.671384
0.671391
0.671391
0.671398
0.671405
0.671412
0.671419
0.671419
0.671426
0.671433
0.67144
0.671448
0.671448
0.671455
0.671462
0.671469
0.671476
0.671476
0.671483
0.67149
0.671498
0.671505
0.671505
0.671512
0.671519
0.671526
0.671533
0.671533
0.671541
0.671548
0.671555
0.671562
0.671562
0.671569
0.671577
0.671584
0.671591
0.671591
0.671598
0.671605
0.671613
0.67162
0.67162
0.671627
0.671634
0.671642
0.671649
0.671649
0.671656
0.671664
0.671671
0.671678
0.671678
0.671685
0.671693
0.6717
0.671707
0.671707
0.671715
0.671722
0.671729
0.671737
0.671737
0.671744
0.671751
0.671759
0.671766
0.671766
0.671773
0.671781
0.671788
0.671795
0.671795
0.671803
0.67181
0.671817
0.671825
0.671825
0.671832
0.67184
0.671847
0.671854
0.671854
0.671862
0.671869
0.671877
0.671884
0.671884
0.671892
0.671899
0.671907
0.671914
0.671914
0.671921
0.671929
0.671936
0.671944
0.671944
0.671951
0.671959
0.671966
0.671974
0.671974
0.671981
0.671989
0.671996
0.672004
0.672004
0.672011
0.672019
0.672026
0.672034
0.672034
0.672041
0.672049
0.672057
0.672064
0.672064
0.672072
0.672079
0.672087
0.672094
0.672094
0.672102
0.67211
0.672117
0.672125
0.672125
0.672132
0.67214
0.672148
0.672155
0.672155
0.672163
0.67217
0.672178
0.672186
0.672186
0.672193
0.672201
0.672209
0.672216
0.672216
0.672224
0.672232
0.672239
0.672247
0.672247
0.672255
0.672262
0.67227
0.672278
0.672278
0.672285
0.672293
0.672301
0.672309
0.672309
0.672316
0.672324
0.672332
0.67234
0.67234
0.672347
0.672355
0.672363
0.672371
0.672371
0.672378
0.672386
0.672394
0.672402
0.672402
0.67241
0.672417
0.672425
0.672433
0.672433
0.672441
0.672449
0.672456
0.672464
0.672464
0.672472
0.67248
0.672488
0.672496
0.672496
0.672503
0.672511
0.672519
0.672527
0.672527
0.672535
0.672543
0.672551
0.672559
0.672559
0.672567
0.672574
0.672582
0.67259
0.67259
0.672598
0.672606
0.672614
0.672622
0.672622
0.67263
0.672638
0.672646
0.672654
0.672654
0.672662
0.67267
0.672678
0.672686
0.672686
0.672694
0.672702
0.67271
0.672718
0.672718
0.672726
0.672734
0.672742
0.67275
0.67275
0.672758
0.672766
0.672774
0.672782
0.672782
0.67279
0.672798
0.672806
0.672814
0.672814
0.672822
0.67283
0.672838
0.672846
0.672846
0.672854
0.672863
0.672871
0.672879
0.672879
0.672887
0.672895
0.672903
0.672911
0.672911
0.672919
0.672928
0.672936
0.672944
0.672944
0.672952
0.67296
0.672968
0.672977
0.672977
0.672985
0.672993
0.673001
0.673009
0.673009
0.673017
0.673026
0.673034
0.673042
0.673042
0.67305
0.673059
0.673067
0.673075
0.673075
0.673083
0.673092
0.6731
0.673108
0.673108
0.673116
0.673125
0.673133
0.673141
0.673141
0.673149
0.673158
0.673166
0.673174
0.673174
0.673183
0.673191
0.673199
0.673208
0.673208
0.673216
0.673224
0.673233
0.673241
0.673241
0.673249
0.673258
0.673266
0.673274
0.673274
0.673283
0.673291
0.673299
0.673308
0.673308
0.673316
0.673325
0.673333
0.673341
0.673341
0.67335
0.673358
0.673367
0.673375
0.673375
0.673384
0.673392
0.6734
0.673409
0.673409
0.673417
0.673426
0.673434
0.673443
0.673443
0.673451
0.67346
0.673468
0.673477
0.673477
0.673485
0.673494
0.673502
0.673511
0.673511
0.673519
0.673528
0.673536
0.673545
0.673545
0.673553
0.673562
0.673571
0.673579
0.673579
0.673588
0.673596
0.673605
0.673613
0.673613
0.673622
0.673631
0.673639
0.673648
0.673648
0.673656
0.673665
0.673674
0.673682
0.673682
0.673691
0.6737
0.673708
0.673717
0.673717
0.673726
0.673734
0.673743
0.673752
0.673752
0.67376
0.673769
0.673778
0.673786
0.673786
0.673795
0.673804
0.673812
0.673821
0.673821
0.67383
0.673839
0.673847
0.673856
0.673856
0.673865
0.673874
0.673882
0.673891
0.673891
0.6739
0.673909
0.673917
0.673926
0.673926
0.673935
0.673944
0.673952
0.673961
0.673961
0.67397
0.673979
0.673988
0.673997
0.673997
0.674005
0.674014
0.674023
0.674032
0.674032
0.674041
0.67405
0.674058
0.674067
0.674067
0.674076
0.674085
0.674094
0.674103
0.674103
0.674112
0.674121
0.67413
0.674138
0.674138
0.674147
0.674156
0.674165
0.674174
0.674174
0.674183
0.674192
0.674201
0.67421
0.67421
0.674219
0.674228
0.674237
0.674246
0.674246
0.674255
0.674264
0.674273
0.674282
0.674282
0.674291
0.6743
0.674309
0.674318
0.674318
0.674327
0.674336
0.674345
0.674354
0.674354
0.674363
0.674372
0.674381
0.67439
0.67439
0.674399
0.674408
0.674418
0.674427
0.674427
0.674436
0.674445
0.674454
0.674463
0.674463
0.674472
0.674481
0.67449
0.6745
0.6745
0.674509
0.674518
0.674527
0.674536
0.674536
0.674545
0.674554
0.674564
0.674573
0.674573
0.674582
0.674591
0.6746
0.67461
0.67461
0.674619
0.674628
0.674637
0.674646
0.674646
0.674656
0.674665
0.674674
0.674683
0.674683
0.674693
0.674702
0.674711
0.67472
0.67472
0.67473
0.674739
0.674748
0.674758
0.674758
0.674767
0.674776
0.674785
0.674795
0.674795
0.674804
0.674813
0.674823
0.674832
0.674832
0.674841
0.674851
0.67486
0.674869
0.674869
0.674879
0.674888
0.674898
0.674907
0.674907
0.674916
0.674926
0.674935
0.674945
0.674945
0.674954
0.674963
0.674973
0.674982
0.674982
0.674992
0.675001
0.67501
0.67502
0.67502
0.675029
0.675039
0.675048
0.675058
0.675058
0.675067
0.675077
0.675086
0.675096
0.675096
0.675105
0.675115
0.675124
0.675134
0.675134
0.675143
0.675153
0.675162
0.675172
0.675172
0.675181
0.675191
0.6752
0.67521
0.67521
0.67522
0.675229
0.675239
0.675248
0.675248
0.675258
0.675267
0.675277
0.675287
0.675287
0.675296
0.675306
0.675316
0.675325
0.675325
0.675335
0.675344
0.675354
0.675364
0.675364
0.675373
0.675383
0.675393
0.675402
0.675402
0.675412
0.675422
0.675431
0.675441
0.675441
0.675451
0.675461
0.67547
0.67548
0.67548
0.67549
0.675499
0.675509
0.675519
0.675519
0.675529
0.675538
0.675548
0.675558
0.675558
0.675568
0.675577
0.675587
0.675597
0.675597
0.675607
0.675617
0.675626
0.675636
0.675636
0.675646
0.675656
0.675666
0.675676
0.675676
0.675685
0.675695
0.675705
0.675715
0.675715
0.675725
0.675735
0.675745
0.675754
0.675754
0.675764
0.675774
0.675784
0.675794
0.675794
0.675804
0.675814
0.675824
0.675834
0.675834
0.675844
0.675853
0.675863
0.675873
0.675873
0.675883
0.675893
0.675903
0.675913
0.675913
0.675923
0.675933
0.675943
0.675953
0.675953
0.675963
0.675973
0.675983
0.675993
0.675993
0.676003
0.676013
0.676023
0.676033
0.676033
0.676043
0.676053
0.676063
0.676073
0.676073
0.676084
0.676094
0.676104
0.676114
0.676114
0.676124
0.676134
0.676144
0.676154
0.676154
0.676164
0.676174
0.676185
0.676195
0.676195
0.676205
0.676215
0.676225
0.676235
0.676235
0.676245
0.676256
0.676266
0.676276
0.676276
0.676286
0.676296
0.676306
0.676317
0.676317
0.676327
0.676337
0.676347
0.676358
0.676358
0.676368
0.676378
0.676388
0.676398
0.676398
0.676409
0.676419
0.676429
0.676439
0.676439
0.67645
0.67646
0.67647
0.676481
0.676481
0.676491
0.676501
0.676512
0.676522
0.676522
0.676532
0.676542
0.676553
0.676563
0.676563
0.676573
0.676584
0.676594
0.676605
0.676605
0.676615
0.676625
0.676636
0.676646
0.676646
0.676656
0.676667
0.676677
0.676688
0.676688
0.676698
0.676708
0.676719
0.676729
0.676729
0.67674
0.67675
0.676761
0.676771
0.676771
0.676782
0.676792
0.676802
0.676813
0.676813
0.676823
0.676834
0.676844
0.676855
0.676855
0.676865
0.676876
0.676887
0.676897
0.676897
0.676908
0.676918
0.676929
0.676939
0.676939
0.67695
0.67696
0.676971
0.676981
0.676981
0.676992
0.677003
0.677013
0.677024
0.677024
0.677034
0.677045
0.677056
0.677066
0.677066
0.677077
0.677087
0.677098
0.677109
0.677109
0.677119
0.67713
0.677141
0.677151
0.677151
0.677162
0.677173
0.677183
0.677194
0.677194
0.677205
0.677215
0.677226
0.677237
0.677237
0.677248
0.677258
0.677269
0.67728
0.67728
0.677291
0.677301
0.677312
0.677323
0.677323
0.677334
0.677344
0.677355
0.677366
0.677366
0.677377
0.677387
0.677398
0.677409
0.677409
0.67742
0.677431
0.677442
0.677452
0.677452
0.677463
0.677474
0.677485
0.677496
0.677496
0.677507
0.677517
0.677528
0.677539
0.677539
0.67755
0.677561
0.677572
0.677583
0.677583
0.677594
0.677605
0.677615
0.677626
0.677626
0.677637
0.677648
0.677659
0.67767
0.67767
0.677681
0.677692
0.677703
0.677714
0.677714
0.677725
0.677736
0.677747
0.677758
0.677758
0.677769
0.67778
0.677791
0.677802
0.677802
0.677813
0.677824
0.677835
0.677846
0.677846
0.677857
0.677868
0.677879
0.67789
0.67789
0.677901
0.677912
0.677924
0.677935
0.677935
0.677946
0.677957
0.677968
0.677979
0.677979
0.67799
0.678001
0.678012
0.678024
0.678024
0.678035
0.678046
0.678057
0.678068
0.678068
0.678079
0.678091
0.678102
0.678113
0.678113
0.678124
0.678135
0.678146
0.678158
0.678158
0.678169
0.67818
0.678191
0.678203
0.678203
0.678214
0.678225
0.678236
0.678248
0.678248
0.678259
0.67827
0.678281
0.678293
0.678293
0.678304
0.678315
0.678327
0.678338
0.678338
0.678349
0.67836
0.678372
0.678383
0.678383
0.678395
0.678406
0.678417
0.678429
0.678429
0.67844
0.678451
0.678463
0.678474
0.678474
0.678485
0.678497
0.678508
0.67852
0.67852
0.678531
0.678542
0.678554
0.678565
0.678565
0.678577
0.678588
0.6786
0.678611
0.678611
0.678622
0.678634
0.678645
0.678657
0.678657
0.678668
0.67868
0.678691
0.678703
0.678703
0.678714
0.678726
0.678737
0.678749
0.678749
0.67876
0.678772
0.678784
0.678795
0.678795
0.678807
0.678818
0.67883
0.678841
0.678841
0.678853
0.678864
0.678876
0.678888
0.678888
0.678899
0.678911
0.678922
0.678934
0.678934
0.678946
0.678957
0.678969
0.678981
0.678981
0.678992
0.679004
0.679016
0.679027
0.679027
0.679039
0.679051
0.679062
0.679074
0.679074
0.679086
0.679097
0.679109
0.679121
0.679121
0.679133
0.679144
0.679156
0.679168
0.679168
0.67918
0.679191
0.679203
0.679215
0.679215
0.679227
0.679238
0.67925
0.679262
0.679262
0.679274
0.679285
0.679297
0.679309
0.679309
0.679321
0.679333
0.679345
0.679356
0.679356
0.679368
0.67938
0.679392
0.679404
0.679404
0.679416
0.679428
0.679439
0.679451
0.679451
0.679463
0.679475
0.679487
0.679499
0.679499
0.679511
0.679523
0.679535
0.679547
0.679547
0.679559
0.679571
0.679583
0.679595
0.679595
0.679607
0.679618
0.67963
0.679642
0.679642
0.679654
0.679666
0.679678
0.67969
0.67969
0.679702
0.679714
0.679727
0.679739
0.679739
0.679751
0.679763
0.679775
0.679787
0.679787
0.679799
0.679811
0.679823
0.679835
0.679835
0.679847
0.679859
0.679871
0.679883
0.679883
0.679896
0.679908
0.67992
0.679932
0.679932
0.679944
0.679956
0.679968
0.679981
0.679981
0.679993
0.680005
0.680017
0.680029
0.680029
0.680041
0.680054
0.680066
0.680078
0.680078
0.68009
0.680102
0.680115
0.680127
0.680127
0.680139
0.680151
0.680164
0.680176
0.680176
0.680188
0.680201
0.680213
0.680225
0.680225
0.680237
0.68025
0.680262
0.680274
0.680274
0.680287
0.680299
0.680311
0.680324
0.680324
0.680336
0.680348
0.680361
0.680373
0.680373
0.680385
0.680398
0.68041
0.680422
0.680422
0.680435
0.680447
0.68046
0.680472
0.680472
0.680484
0.680497
0.680509
0.680522
0.680522
0.680534
0.680547
0.680559
0.680572
0.680572
0.680584
0.680597
0.680609
0.680621
0.680621
0.680634
0.680646
0.680659
0.680671
0.680671
0.680684
0.680696
0.680709
0.680722
0.680722
0.680734
0.680747
0.680759
0.680772
0.680772
0.680784
0.680797
0.680809
0.680822
0.680822
0.680835
0.680847
0.68086
0.680872
0.680872
0.680885
0.680898
0.68091
0.680923
0.680923
0.680936
0.680948
0.680961
0.680974
0.680974
0.680986
0.680999
0.681012
0.681024
0.681024
0.681037
0.68105
0.681062
0.681075
0.681075
0.681088
0.6811
0.681113
0.681126
0.681126
0.681139
0.681151
0.681164
0.681177
0.681177
0.68119
0.681203
0.681215
0.681228
0.681228
0.681241
0.681254
0.681266
0.681279
0.681279
0.681292
0.681305
0.681318
0.681331
0.681331
0.681343
0.681356
0.681369
0.681382
0.681382
0.681395
0.681408
0.681421
0.681434
0.681434
0.681446
0.681459
0.681472
0.681485
0.681485
0.681498
0.681511
0.681524
0.681537
0.681537
0.68155
0.681563
0.681576
0.681589
0.681589
0.681602
0.681615
0.681628
0.681641
0.681641
0.681654
0.681667
0.68168
0.681693
0.681693
0.681706
0.681719
0.681732
0.681745
0.681745
0.681758
0.681771
0.681784
0.681797
0.681797
0.68181
0.681823
0.681836
0.681849
0.681849
0.681862
0.681876
0.681889
0.681902
0.681902
0.681915
0.681928
0.681941
0.681954
0.681954
0.681967
0.681981
0.681994
0.682007
0.682007
0.68202
0.682033
0.682046
0.68206
0.68206
0.682073
0.682086
0.682099
0.682113
0.682113
0.682126
0.682139
0.682152
0.682165
0.682165
0.682179
0.682192
0.682205
0.682219
0.682219
0.682232
0.682245
0.682258
0.682272
0.682272
0.682285
0.682298
0.682312
0.682325
0.682325
0.682338
0.682352
0.682365
0.682378
0.682378
0.682392
0.682405
0.682418
0.682432
0.682432
0.682445
0.682459
0.682472
0.682485
0.682485
0.682499
0.682512
0.682526
0.682539
0.682539
0.682552
0.682566
0.682579
0.682593
0.682593
0.682606
0.68262
0.682633
0.682647
0.682647
0.68266
0.682674
0.682687
0.682701
0.682701
0.682714
0.682728
0.682741
0.682755
0.682755
0.682768
0.682782
0.682795
0.682809
0.682809
0.682822
0.682836
0.68285
0.682863
0.682863
0.682877
0.68289
0.682904
0.682918
0.682918
0.682931
0.682945
0.682959
0.682972
0.682972
0.682986
0.682999
0.683013
0.683027
0.683027
0.68304
0.683054
0.683068
0.683081
0.683081
0.683095
0.683109
0.683123
0.683136
0.683136
0.68315
0.683164
0.683177
0.683191
0.683191
0.683205
0.683219
0.683232
0.683246
0.683246
0.68326
0.683274
0.683288
0.683301
0.683301
0.683315
0.683329
0.683343
0.683357
0.683357
0.68337
0.683384
0.683398
0.683412
0.683412
0.683426
0.68344
0.683454
0.683467
0.683467
0.683481
0.683495
0.683509
0.683523
0.683523
0.683537
0.683551
0.683565
0.683579
0.683579
0.683593
0.683607
0.68362
0.683634
0.683634
0.683648
0.683662