<?xml version="1.0"?>
<VTKFile type="UnstructuredGrid" version="0.1" byte_order="LittleEndian">
<UnstructuredGrid>
<Piece NumberOfPoints="5000" NumberOfCells="4000">
<PointData Scalars="Reaction 0">
<DataArray type="Float32" Name="Reaction 0" format="ascii">
0.712715
0.712715
0.712715
0.712715
0.712715
0.712715
0.712715
0.712715
0.712715
0.712715
0.712715
0.712715
0.712715
0.712715
0.712715
0.712715
0.712716
0.712716
0.712716
0.712716
0.712716
0.712716
0.712716
0.712716
0.712716
0.712716
0.712716
0.712716
0.712717
0.712717
0.712717
0.712717
0.712717
0.712717
0.712717
0.712717
0.712717
0.712718
0.712718
0.712718
0.712718
0.712718
0.712718
0.712719
0.712719
0.712719
0.712719
0.712719
0.71272
0.71272
0.71272
0.71272
0.71272
0.71272
0.712721
0.712721
0.712721
0.712721
0.712722
0.712722
0.712722
0.712722
0.712722
0.712723
0.712723
0.712723
0.712723
0.712724
0.712724
0.712724
0.712724
0.712725
0.712725
0.712725
0.712726
0.712726
0.712726
0.712726
0.712727
0.712727
0.712727
0.712727
0.712728
0.712728
0.712729
0.712729
0.712729
0.712729
0.71273
0.71273
0.71273
0.712731
0.712731
0.712732
0.712732
0.712732
0.712732
0.712733
0.712733
0.712734
0.712734
0.712734
0.712735
0.712735
0.712736
0.712736
0.712736
0.712737
0.712737
0.712738
0.712738
0.712738
0.712739
0.712739
0.71274
0.71274
0.71274
0.712741
0.712742
0.712742
0.712742
0.712743
0.712743
0.712744
0.712744
0.712744
0.712745
0.712746
0.712746
0.712747
0.712747
0.712747
0.712748
0.712749
0.712749
0.712749
0.71275
0.712751
0.712751
0.712752
0.712752
0.712753
0.712753
0.712754
0.712755
0.712755
0.712755
0.712756
0.712757
0.712757
0.712757
0.712758
0.712759
0.71276
0.71276
0.71276
0.712761
0.712762
0.712763
0.712763
0.712763
0.712764
0.712765
0.712766
0.712766
0.712766
0.712767
0.712768
0.712769
0.712769
0.712769
0.71277
0.712771
0.712772
0.712773
0.712773
0.712774
0.712774
0.712775
0.712776
0.712776
0.712777
0.712778
0.712779
0.71278
0.71278
0.71278
0.712781
0.712782
0.712783
0.712783
0.712784
0.712785
0.712786
0.712787
0.712787
0.712788
0.712789
0.712789
0.71279
0.71279
0.712791
0.712792
0.712793
0.712794
0.712794
0.712795
0.712796
0.712797
0.712798
0.712798
0.712799
0.7128
0.712801
0.712802
0.712802
0.712803
0.712804
0.712805
0.712806
0.712806
0.712807
0.712808
0.712809
0.71281
0.71281
0.712811
0.712813
0.712814
0.712815
0.712815
0.712816
0.712817
0.712818
0.712819
0.712819
0.71282
0.712821
0.712822
0.712824
0.712824
0.712825
0.712826
0.712827
0.712828
0.712828
0.712829
0.71283
0.712832
0.712833
0.712833
0.712834
0.712835
0.712836
0.712838
0.712838
0.712839
0.71284
0.712841
0.712842
0.712842
0.712844
0.712845
0.712846
0.712847
0.712847
0.712849
0.71285
0.712851
0.712852
0.712852
0.712854
0.712855
0.712856
0.712858
0.712858
0.712859
0.71286
0.712861
0.712863
0.712863
0.712864
0.712865
0.712867
0.712868
0.712868
0.712869
0.712871
0.712872
0.712874
0.712874
0.712875
0.712876
0.712878
0.712879
0.712879
0.71288
0.712882
0.712883
0.712885
0.712885
0.712886
0.712888
0.712889
0.71289
0.71289
0.712892
0.712893
0.712895
0.712896
0.712896
0.712898
0.712899
0.712901
0.712902
0.712902
0.712904
0.712905
0.712907
0.712908
0.712908
0.71291
0.712911
0.712913
0.712914
0.712914
0.712916
0.712917
0.712919
0.71292
0.71292
0.712922
0.712923
0.712925
0.712927
0.712927
0.712928
0.71293
0.712931
0.712933
0.712933
0.712935
0.712936
0.712938
0.712939
0.712939
0.712941
0.712943
0.712944
0.712946
0.712946
0.712948
0.712949
0.712951
0.712953
0.712953
0.712954
0.712956
0.712958
0.712959
0.712959
0.712961
0.712963
0.712964
0.712966
0.712966
0.712968
0.71297
0.712971
0.712973
0.712973
0.712975
0.712977
0.712978
0.71298
0.71298
0.712982
0.712984
0.712985
0.712987
0.712987
0.712989
0.712991
0.712993
0.712994
0.712994
0.712996
0.712998
0.713
0.713002
0.713002
0.713004
0.713005
0.713007
0.713009
0.713009
0.713011
0.713013
0.713015
0.713017
0.713017
0.713019
0.71302
0.713022
0.713024
0.713024
0.713026
0.713028
0.71303
0.713032
0.713032
0.713034
0.713036
0.713038
0.71304
0.71304
0.713042
0.713044
0.713046
0.713048
0.713048
0.71305
0.713052
0.713054
0.713056
0.713056
0.713058
0.71306
0.713062
0.713064
0.713064
0.713066
0.713068
0.71307
0.713072
0.713072
0.713074
0.713076
0.713078
0.71308
0.71308
0.713082
0.713084
0.713086
0.713088
0.713088
0.713091
0.713093
0.713095
0.713097
0.713097
0.713099
0.713101
0.713103
0.713105
0.713105
0.713108
0.71311
0.713112
0.713114
0.713114
0.713116
0.713118
0.713121
0.713123
0.713123
0.713125
0.713127
0.713129
0.713132
0.713132
0.713134
0.713136
0.713138
0.713141
0.713141
0.713143
0.713145
0.713147
0.71315
0.71315
0.713152
0.713154
0.713156
0.713159
0.713159
0.713161
0.713163
0.713166
0.713168
0.713168
0.71317
0.713172
0.713175
0.713177
0.713177
0.713179
0.713182
0.713184
0.713187
0.713187
0.713189
0.713191
0.713194
0.713196
0.713196
0.713198
0.713201
0.713203
0.713206
0.713206
0.713208
0.71321
0.713213
0.713215
0.713215
0.713218
0.71322
0.713223
0.713225
0.713225
0.713228
0.71323
0.713232
0.713235
0.713235
0.713237
0.71324
0.713242
0.713245
0.713245
0.713247
0.71325
0.713252
0.713255
0.713255
0.713257
0.71326
0.713263
0.713265
0.713265
0.713268
0.71327
0.713273
0.713275
0.713275
0.713278
0.71328
0.713283
0.713286
0.713286
0.713288
0.713291
0.713293
0.713296
0.713296
0.713299
0.713301
0.713304
0.713307
0.713307
0.713309
0.713312
0.713315
0.713317
0.713317
0.71332
0.713323
0.713325
0.713328
0.713328
0.713331
0.713333
0.713336
0.713339
0.713339
0.713342
0.713344
0.713347
0.71335
0.71335
0.713352
0.713355
0.713358
0.713361
0.713361
0.713363
0.713366
0.713369
0.713372
0.713372
0.713375
0.713377
0.71338
0.713383
0.713383
0.713386
0.713389
0.713391
0.713394
0.713394
0.713397
0.7134
0.713403
0.713406
0.713406
0.713409
0.713411
0.713414
0.713417
0.713417
0.71342
0.713423
0.713426
0.713429
0.713429
0.713432
0.713435
0.713437
0.71344
0.71344
0.713443
0.713446
0.713449
0.713452
0.713452
0.713455
0.713458
0.713461
0.713464
0.713464
0.713467
0.71347
0.713473
0.713476
0.713476
0.713479
0.713482
0.713485
0.713488
0.713488
0.713491
0.713494
0.713497
0.7135
0.7135
0.713503
0.713506
0.713509
0.713512
0.713512
0.713515
0.713519
0.713522
0.713525
0.713525
0.713528
0.713531
0.713534
0.713537
0.713537
0.71354
0.713543
0.713547
0.71355
0.71355
0.713553
0.713556
0.713559
0.713562
0.713562
0.713565
0.713569
0.713572
0.713575
0.713575
0.713578
0.713581
0.713585
0.713588
0.713588
0.713591
0.713594
0.713597
0.713601
0.713601
0.713604
0.713607
0.71361
0.713614
0.713614
0.713617
0.71362
0.713624
0.713627
0.713627
0.71363
0.713633
0.713637
0.71364
0.71364
0.713643
0.713647
0.71365
0.713653
0.713653
0.713657
0.71366
0.713663
0.713667
0.713667
0.71367
0.713673
0.713677
0.71368
0.71368
0.713684
0.713687
0.71369
0.713694
0.713694
0.713697
0.713701
0.713704
0.713707
0.713707
0.713711
0.713714
0.713718
0.713721
0.713721
0.713725
0.713728
0.713732
0.713735
0.713735
0.713738
0.713742
0.713745
0.713749
0.713749
0.713752
0.713756
0.713759
0.713763
0.713763
0.713767
0.71377
0.713774
0.713777
0.713777
0.713781
0.713784
0.713788
0.713791
0.713791
0.713795
0.713799
0.713802
0.713806
0.713806
0.713809
0.713813
0.713817
0.71382
0.71382
0.713824
0.713827
0.713831
0.713835
0.713835
0.713838
0.713842
0.713846
0.713849
0.713849
0.713853
0.713857
0.71386
0.713864
0.713864
0.713868
0.713871
0.713875
0.713879
0.713879
0.713883
0.713886
0.71389
0.713894
0.713894
0.713897
0.713901
0.713905
0.713909
0.713909
0.713913
0.713916
0.71392
0.713924
0.713924
0.713928
0.713931
0.713935
0.713939
0.713939
0.713943
0.713947
0.71395
0.713954
0.713954
0.713958
0.713962
0.713966
0.71397
0.71397
0.713974
0.713977
0.713981
0.713985
0.713985
0.713989
0.713993
0.713997
0.714001
0.714001
0.714005
0.714009
0.714013
0.714016
0.714016
0.71402
0.714024
0.714028
0.714032
0.714032
0.714036
0.71404
0.714044
0.714048
0.714048
0.714052
0.714056
0.71406
0.714064
0.714064
0.714068
0.714072
0.714076
0.71408
0.71408
0.714084
0.714088
0.714092
0.714096
0.714096
0.7141
0.714104
0.714108
0.714112
0.714112
0.714117
0.714121
0.714125
0.714129
0.714129
0.714133
0.714137
0.714141
0.714145
0.714145
0.714149
0.714153
0.714158
0.714162
0.714162
0.714166
0.71417
0.714174
0.714178
0.714178
0.714183
0.714187
0.714191
0.714195
0.714195
0.714199
0.714204
0.714208
0.714212
0.714212
0.714216
0.71422
0.714225
0.714229
0.714229
0.714233
0.714237
0.714242
0.714246
0.714246
0.71425
0.714254
0.714259
0.714263
0.714263
0.714267
0.714272
0.714276
0.71428
0.71428
0.714285
0.714289
0.714293
0.714298
0.714298
0.714302
0.714306
0.714311
0.714315
0.714315
0.714319
0.714324
0.714328
0.714332
0.714332
0.714337
0.714341
0.714346
0.71435
0.71435
0.714354
0.714359
0.714363
0.714368
0.714368
0.714372
0.714377
0.714381
0.714385
0.714385
0.71439
0.714394
0.714399
0.714403
0.714403
0.714408
0.714412
0.714417
0.714421
0.714421
0.714426
0.71443
0.714435
0.714439
0.714439
0.714444
0.714448
0.714453
0.714458
0.714458
0.714462
0.714467
0.714471
0.714476
0.714476
0.71448
0.714485
0.71449
0.714494
0.714494
0.714499
0.714503
0.714508
0.714513
0.714513
0.714517
0.714522
0.714526
0.714531
0.714531
0.714536
0.71454
0.714545
0.71455
0.71455
0.714554
0.714559
0.714564
0.714569
0.714569
0.714573
0.714578
0.714583
0.714587
0.714587
0.714592
0.714597
0.714602
0.714606
0.714606
0.714611
0.714616
0.714621
0.714625
0.714625
0.71463
0.714635
0.71464
0.714644
0.714644
0.714649
0.714654
0.714659
0.714664
0.714664
0.714668
0.714673
0.714678
0.714683
0.714683
0.714688
0.714693
0.714698
0.714702
0.714702
0.714707
0.714712
0.714717
0.714722
0.714722
0.714727
0.714732
0.714737
0.714742
0.714742
0.714746
0.714751
0.714756
0.714761
0.714761
0.714766
0.714771
0.714776
0.714781
0.714781
0.714786
0.714791
0.714796
0.714801
0.714801
0.714806
0.714811
0.714816
0.714821
0.714821
0.714826
0.714831
0.714836
0.714841
0.714841
0.714846
0.714851
0.714856
0.714861
0.714861
0.714866
0.714871
0.714876
0.714881
0.714881
0.714887
0.714892
0.714897
0.714902
0.714902
0.714907
0.714912
0.714917
0.714922
0.714922
0.714927
0.714933
0.714938
0.714943
0.714943
0.714948
0.714953
0.714958
0.714964
0.714964
0.714969
0.714974
0.714979
0.714984
0.714984
0.71499
0.714995
0.715
0.715005
0.715005
0.71501
0.715016
0.715021
0.715026
0.715026
0.715031
0.715037
0.715042
0.715047
0.715047
0.715052
0.715058
0.715063
0.715068
0.715068
0.715074
0.715079
0.715084
0.71509
0.71509
0.715095
0.7151
0.715106
0.715111
0.715111
0.715116
0.715122
0.715127
0.715132
0.715132
0.715138
0.715143
0.715149
0.715154
0.715154
0.715159
0.715165
0.71517
0.715176
0.715176
0.715181
0.715186
0.715192
0.715197
0.715197
0.715203
0.715208
0.715214
0.715219
0.715219
0.715225
0.71523
0.715236
0.715241
0.715241
0.715247
0.715252
0.715258
0.715263
0.715263
0.715269
0.715274
0.71528
0.715285
0.715285
0.715291
0.715296
0.715302
0.715307
0.715307
0.715313
0.715319
0.715324
0.71533
0.71533
0.715335
0.715341
0.715347
0.715352
0.715352
0.715358
0.715363
0.715369
0.715375
0.715375
0.71538
0.715386
0.715392
0.715397
0.715397
0.715403
0.715409
0.715414
0.71542
0.71542
0.715426
0.715431
0.715437
0.715443
0.715443
0.715448
0.715454
0.71546
0.715466
0.715466
0.715471
0.715477
0.715483
0.715489
0.715489
0.715494
0.7155
0.715506
0.715512
0.715512
0.715518
0.715523
0.715529
0.715535
0.715535
0.715541
0.715547
0.715552
0.715558
0.715558
0.715564
0.71557
0.715576
0.715582
0.715582
0.715588
0.715593
0.715599
0.715605
0.715605
0.715611
0.715617
0.715623
0.715629
0.715629
0.715635
0.715641
0.715646
0.715652
0.715652
0.715658
0.715664
0.71567
0.715676
0.715676
0.715682
0.715688
0.715694
0.7157
0.7157
0.715706
0.715712
0.715718
0.715724
0.715724
0.71573
0.715736
0.715742
0.715748
0.715748
0.715754
0.71576
0.715766
0.715772
0.715772
0.715778
0.715784
0.71579
0.715797
0.715797
0.715803
0.715809
0.715815
0.715821
0.715821
0.715827
0.715833
0.715839
0.715845
0.715845
0.715851
0.715858
0.715864
0.71587
0.71587
0.715876
0.715882
0.715888
0.715895
0.715895
0.715901
0.715907
0.715913
0.715919
0.715919
0.715925
0.715932
0.715938
0.715944
0.715944
0.71595
0.715957
0.715963
0.715969
0.715969
0.715975
0.715982
0.715988
0.715994
0.715994
0.716
0.716007
0.716013
0.716019
0.716019
0.716026
0.716032
0.716038
0.716044
0.716044
0.716051
0.716057
0.716063
0.71607
0.71607
0.716076
0.716083
0.716089
0.716095
0.716095
0.716102
0.716108
0.716114
0.716121
0.716121
0.716127
0.716134
0.71614
0.716146
0.716146
0.716153
0.716159
0.716166
0.716172
0.716172
0.716179
0.716185
0.716192
0.716198
0.716198
0.716204
0.716211
0.716217
0.716224
0.716224
0.71623
0.716237
0.716243
0.71625
0.71625
0.716256
0.716263
0.716269
0.716276
0.716276
0.716283
0.716289
0.716296
0.716302
0.716302
0.716309
0.716315
0.716322
0.716329
0.716329
0.716335
0.716342
0.716348
0.716355
0.716355
0.716362
0.716368
0.716375
0.716382
0.716382
0.716388
0.716395
0.716401
0.716408
0.716408
0.716415
0.716421
0.716428
0.716435
0.716435
0.716442
0.716448
0.716455
0.716462
0.716462
0.716468
0.716475
0.716482
0.716489
0.716489
0.716495
0.716502
0.716509
0.716516
0.716516
0.716522
0.716529
0.716536
0.716543
0.716543
0.716549
0.716556
0.716563
0.71657
0.71657
0.716577
0.716583
0.71659
0.716597
0.716597
0.716604
0.716611
0.716618
0.716625
0.716625
0.716631
0.716638
0.716645
0.716652
0.716652
0.716659
0.716666
0.716673
0.71668
0.71668
0.716687
0.716693
0.7167
0.716707
0.716707
0.716714
0.716721
0.716728
0.716735
0.716735
0.716742
0.716749
0.716756
0.716763
0.716763
0.71677
0.716777
0.716784
0.716791
0.716791
0.716798
0.716805
0.716812
0.716819
0.716819
0.716826
0.716833
0.71684
0.716847
0.716847
0.716854
0.716861
0.716868
0.716876
0.716876
0.716883
0.71689
0.716897
0.716904
0.716904
0.716911
0.716918
0.716925
0.716932
0.716932
0.71694
0.716947
0.716954
0.716961
0.716961
0.716968
0.716975
0.716982
0.71699
0.71699
0.716997
0.717004
0.717011
0.717018
0.717018
0.717026
0.717033
0.71704
0.717047
0.717047
0.717055
0.717062
0.717069
0.717076
0.717076
0.717084
0.717091
0.717098
0.717105
0.717105
0.717113
0.71712
0.717127
0.717135
0.717135
0.717142
0.717149
0.717156
0.717164
0.717164
0.717171
0.717178
0.717186
0.717193
0.717193
0.717201
0.717208
0.717215
0.717223
0.717223
0.71723
0.717237
0.717245
0.717252
0.717252
0.71726
0.717267
0.717275
0.717282
0.717282
0.717289
0.717297
0.717304
0.717312
0.717312
0.717319
0.717327
0.717334
0.717342
0.717342
0.717349
0.717357
0.717364
0.717372
0.717372
0.717379
0.717387
0.717394
0.717402
0.717402
0.717409
0.717417
0.717424
0.717432
0.717432
0.717439
0.717447
0.717454
0.717462
0.717462
0.71747
0.717477
0.717485
0.717492
0.717492
0.7175
0.717508
0.717515
0.717523
0.717523
0.71753
0.717538
0.717546
0.717553
0.717553
0.717561
0.717569
0.717576
0.717584
0.717584
0.717592
0.717599
0.717607
0.717615
0.717615
0.717623
0.71763
0.717638
0.717646
0.717646
0.717653
0.717661
0.717669
0.717677
0.717677
0.717684
0.717692
0.7177
0.717708
0.717708
0.717716
0.717723
0.717731
0.717739
0.717739
0.717747
0.717754
0.717762
0.71777
0.71777
0.717778
0.717786
0.717794
0.717801
0.717801
0.717809
0.717817
0.717825
0.717833
0.717833
0.717841
0.717849
0.717857
0.717864
0.717864
0.717872
0.71788
0.717888
0.717896
0.717896
0.717904
0.717912
0.71792
0.717928
0.717928
0.717936
0.717944
0.717952
0.71796
0.71796
0.717968
0.717976
0.717984
0.717992
0.717992
0.718
0.718008
0.718016
0.718024
0.718024
0.718032
0.71804
0.718048
0.718056
0.718056
0.718064
0.718072
0.71808
0.718088
0.718088
0.718096
0.718104
0.718112
0.718121
0.718121
0.718129
0.718137
0.718145
0.718153
0.718153
0.718161
0.718169
0.718177
0.718186
0.718186
0.718194
0.718202
0.71821
0.718218
0.718218
0.718226
0.718235
0.718243
0.718251
0.718251
0.718259
0.718267
0.718276
0.718284
0.718284
0.718292
0.7183
0.718309
0.718317
0.718317
0.718325
0.718333
0.718342
0.71835
0.71835
0.718358
0.718366
0.718375
0.718383
0.718383
0.718391
0.7184
0.718408
0.718416
0.718416
0.718425
0.718433
0.718441
0.71845
0.71845
0.718458
0.718466
0.718475
0.718483
0.718483
0.718491
0.7185
0.718508
0.718517
0.718517
0.718525
0.718533
0.718542
0.71855
0.71855
0.718559
0.718567
0.718576
0.718584
0.718584
0.718593
0.718601
0.718609
0.718618
0.718618
0.718626
0.718635
0.718643
0.718652
0.718652
0.71866
0.718669
0.718677
0.718686
0.718686
0.718694
0.718703
0.718712
0.71872
0.71872
0.718729
0.718737
0.718746
0.718754
0.718754
0.718763
0.718772
0.71878
0.718789
0.718789
0.718797
0.718806
0.718815
0.718823
0.718823
0.718832
0.718841
0.718849
0.718858
0.718858
0.718866
0.718875
0.718884
0.718892
0.718892
0.718901
0.71891
0.718919
0.718927
0.718927
0.718936
0.718945
0.718953
0.718962
0.718962
0.718971
0.71898
0.718988
0.718997
0.718997
0.719006
0.719015
0.719023
0.719032
0.719032
0.719041
0.71905
0.719059
0.719067
0.719067
0.719076
0.719085
0.719094
0.719103
0.719103
0.719111
0.71912
0.719129
0.719138
0.719138
0.719147
0.719156
0.719165
0.719173
0.719173
0.719182
0.719191
0.7192
0.719209
0.719209
0.719218
0.719227
0.719236
0.719245
0.719245
0.719254
0.719263
0.719272
0.71928
0.71928
0.719289
0.719298
0.719307
0.719316
0.719316
0.719325
0.719334
0.719343
0.719352
0.719352
0.719361
0.71937
0.719379
0.719388
0.719388
0.719397
0.719406
0.719416
0.719425
0.719425
0.719434
0.719443
0.719452
0.719461
0.719461
0.71947
0.719479
0.719488
0.719497
0.719497
0.719506
0.719515
0.719525
0.719534
0.719534
0.719543
0.719552
0.719561
0.71957
0.71957
0.719579
0.719589
0.719598
0.719607
0.719607
0.719616
0.719625
0.719635
0.719644
0.719644
0.719653
0.719662
0.719671
0.719681
0.719681
0.71969
0.719699
0.719708
0.719718
0.719718
0.719727
0.719736
0.719746
0.719755
0.719755
0.719764
0.719773
0.719783
0.719792
0.719792
0.719801
0.719811
0.71982
0.719829
0.719829
0.719839
0.719848
0.719857
0.719867
0.719867
0.719876
0.719885
0.719895
0.719904
0.719904
0.719914
0.719923
0.719932
0.719942
0.719942
0.719951
0.719961
0.71997
0.71998
0.71998
0.719989
0.719998
0.720008
0.720017
0.720017
0.720027
0.720036
0.720046
0.720055
0.720055
0.720065
0.720074
0.720084
0.720093
0.720093
0.720103
0.720112
0.720122
0.720131
0.720131
0.720141
0.72015
0.72016
0.72017
0.72017
0.720179
0.720189
0.720198
0.720208
0.720208
0.720218
0.720227
0.720237
0.720246
0.720246
0.720256
0.720266
0.720275
0.720285
0.720285
0.720294
0.720304
0.720314
0.720323
0.720323
0.720333
0.720343
0.720353
0.720362
0.720362
0.720372
0.720382
0.720391
0.720401
0.720401
0.720411
0.720421
0.72043
0.72044
0.72044
0.72045
0.720459
0.720469
0.720479
0.720479
0.720489
0.720499
0.720508
0.720518
0.720518
0.720528
0.720538
0.720548
0.720557
0.720557
0.720567
0.720577
0.720587
0.720597
0.720597
0.720607
0.720616
0.720626
0.720636
0.720636
0.720646
0.720656
0.720666
0.720676
0.720676
0.720686
0.720696
0.720705
0.720715
0.720715
0.720725
0.720735
0.720745
0.720755
0.720755
0.720765
0.720775
0.720785
0.720795
0.720795
0.720805
0.720815
0.720825
0.720835
0.720835
0.720845
0.720855
0.720865
0.720875
0.720875
0.720885
0.720895
0.720905
0.720915
0.720915
0.720925
0.720935
0.720945
0.720955
0.720955
0.720966
0.720976
0.720986
0.720996
0.720996
0.721006
0.721016
0.721026
0.721036
0.721036
0.721046
0.721057
0.721067
0.721077
0.721077
0.721087
0.721097
0.721107
0.721118
0.721118
0.721128
0.721138
0.721148
0.721158
0.721158
0.721169
0.721179
0.721189
0.721199
0.721199
0.721209
0.72122
0.72123
0.72124
0.72124
0.72125
0.721261
0.721271
0.721281
0.721281
0.721292
0.721302
0.721312
0.721323
0.721323
0.721333
0.721343
0.721353
0.721364
0.721364
0.721374
0.721384
0.721395
0.721405
0.721405
0.721416
0.721426
0.721436
0.721447
0.721447
0.721457
0.721467
0.721478
0.721488
0.721488
0.721499
0.721509
0.72152
0.72153
0.72153
0.72154
0.721551
0.721561
0.721572
0.721572
0.721582
0.721593
0.721603
0.721614
0.721614
0.721624
0.721635
0.721645
0.721656
0.721656
0.721666
0.721677
0.721687
0.721698
0.721698
0.721708
0.721719
0.72173
0.72174
0.72174
0.721751
0.721761
0.721772
0.721782
0.721782
0.721793
0.721804
0.721814
0.721825
0.721825
0.721836
0.721846
0.721857
0.721867
0.721867
0.721878
0.721889
0.721899
0.72191
0.72191
0.721921
0.721931
0.721942
0.721953
0.721953
0.721964
0.721974
0.721985
0.721996
0.721996
0.722006
0.722017
0.722028
0.722039
0.722039
0.722049
0.72206
0.722071
0.722082
0.722082
0.722093
0.722103
0.722114
0.722125
0.722125
0.722136
0.722147
0.722157
0.722168
0.722168
0.722179
0.72219
0.722201
0.722212
0.722212
0.722222
0.722233
0.722244
0.722255
0.722255
0.722266
0.722277
0.722288
0.722299
0.722299
0.72231
0.72232
0.722331
0.722342
0.722342
0.722353
0.722364
0.722375
0.722386
0.722386
0.722397
0.722408
0.722419
0.72243
0.72243
0.722441
0.722452
0.722463
0.722474
0.722474
0.722485
0.722496
0.722507
0.722518
0.722518
0.722529
0.72254
0.722551
0.722562
0.722562
0.722573
0.722584
0.722596
0.722607
0.722607
0.722618
0.722629
0.72264
0.722651
0.722651
0.722662
0.722673
0.722684
0.722696
0.722696
0.722707
0.722718
0.722729
0.72274
0.72274
0.722751
0.722763
0.722774
0.722785
0.722785
0.722796
0.722807
0.722819
0.72283
0.72283
0.722841
0.722852
0.722863
0.722875
0.722875
0.722886
0.722897
0.722908
0.72292
0.72292
0.722931
0.722942
0.722954
0.722965
0.722965
0.722976
0.722988
0.722999
0.72301
0.72301
0.723021
0.723033
0.723044
0.723056
0.723056
0.723067
0.723078
0.72309
0.723101
0.723101
0.723112
0.723124
0.723135
0.723147
0.723147
0.723158
0.723169
0.723181
0.723192
0.723192
0.723204
0.723215
0.723227
0.723238
0.723238
0.723249
0.723261
0.723272
0.723284
0.723284
0.723295
0.723307
0.723318
0.72333
0.72333
0.723341
0.723353
0.723364
0.723376
0.723376
0.723388
0.723399
0.723411
0.723422
0.723422
0.723434
0.723445
0.723457
0.723469
0.723469
0.72348
0.723492
0.723503
0.723515
0.723515
0.723527
0.723538
0.72355
0.723561
0.723561
0.723573
0.723585
0.723596
0.723608
0.723608
0.72362
0.723631
0.723643
0.723655
0.723655
0.723667
0.723678
0.72369
0.723702
0.723702
0.723713
0.723725
0.723737
0.723749
0.723749
0.72376
0.723772
0.723784
0.723796
0.723796
0.723807
0.723819
0.723831
0.723843
0.723843
0.723855
0.723866
0.723878
0.72389
0.72389
0.723902
0.723914
0.723926
0.723937
0.723937
0.723949
0.723961
0.723973
0.723985
0.723985
0.723997
0.724009
0.724021
0.724032
0.724032
0.724044
0.724056
0.724068
0.72408
0.72408
0.724092
0.724104
0.724116
0.724128
0.724128
0.72414
0.724152
0.724164
0.724176
0.724176
0.724188
0.7242
0.724212
0.724224
0.724224
0.724236
0.724248
0.72426
0.724272
0.724272
0.724284
0.724296
0.724308
0.72432
0.72432
0.724332
0.724344
0.724356
0.724369
0.724369
0.724381
0.724393
0.724405
0.724417
0.724417
0.724429
0.724441
0.724453
0.724465
0.724465
0.724478
0.72449
0.724502
0.724514
0.724514
0.724526
0.724538
0.724551
0.724563
0.724563
0.724575
0.724587
0.724599
0.724612
0.724612
0.724624
0.724636
0.724648
0.724661
0.724661
0.724673
0.724685
0.724697
0.72471
0.72471
0.724722
0.724734
0.724747
0.724759
0.724759
0.724771
0.724784
0.724796
0.724808
0.724808
0.724821
0.724833
0.724845
0.724858
0.724858
0.72487
0.724882
0.724895
0.724907
0.724907
0.724919
0.724932
0.724944
0.724957
0.724957
0.724969
0.724981
0.724994
0.725006
0.725006
0.725019
0.725031
0.725044
0.725056
0.725056
0.725069
0.725081
0.725094
0.725106
0.725106
0.725119
0.725131
0.725144
0.725156
0.725156
0.725169
0.725181
0.725194
0.725206
0.725206
0.725219
0.725231
0.725244
0.725257
0.725257
0.725269
0.725282
0.725294
0.725307
0.725307
0.725319
0.725332
0.725345
0.725357
0.725357
0.72537
0.725383
0.725395
0.725408
0.725408
0.725421
0.725433
0.725446
0.725459
0.725459
0.725471
0.725484
0.725497
0.725509
0.725509
0.725522
0.725535
0.725548
0.72556
0.72556
0.725573
0.725586
0.725598
0.725611
0.725611
0.725624
0.725637
0.72565
0.725662
0.725662
0.725675
0.725688
0.725701
0.725714
0.725714
0.725726
0.725739
0.725752
0.725765
0.725765
0.725778
0.725791
0.725803
0.725816
0.725816
0.725829
0.725842
0.725855
0.725868
0.725868
0.725881
0.725894
0.725907
0.725919
0.725919
0.725932
0.725945
0.725958
0.725971
0.725971
0.725984
0.725997
0.72601
0.726023
0.726023
0.726036
0.726049
0.726062
0.726075
0.726075
0.726088
0.726101
0.726114
0.726127
0.726127
0.72614
0.726153
0.726166
0.726179
0.726179
0.726192
0.726205
0.726218
0.726232
0.726232
0.726245
0.726258
0.726271
0.726284
0.726284
0.726297
0.72631
0.726323
0.726336
0.726336
0.72635
0.726363
0.726376
0.726389
0.726389
0.726402
0.726415
0.726429
0.726442
0.726442
0.726455
0.726468
0.726481
0.726495
0.726495
0.726508
0.726521
0.726534
0.726548
0.726548
0.726561
0.726574
0.726587
0.726601
0.726601
0.726614
0.726627
0.72664
0.726654
0.726654
0.726667
0.72668
0.726694
0.726707
0.726707
0.72672
0.726734
0.726747
0.72676
0.72676
0.726774
0.726787
0.726801
0.726814
0.726814
0.726827
0.726841
0.726854
0.726867
0.726867
0.726881
0.726894
0.726908
0.726921
0.726921
0.726935
0.726948
0.726962
0.726975
0.726975
0.726988
0.727002
0.727015
0.727029
0.727029
0.727042
0.727056
0.727069
0.727083
0.727083
0.727096
0.72711
0.727124
0.727137
0.727137
0.727151
0.727164
0.727178
0.727191
0.727191
0.727205
0.727219
0.727232
0.727246
0.727246
0.727259
0.727273
0.727287
0.7273
0.7273
0.727314
0.727327
0.727341
0.727355
0.727355
0.727368
0.727382
0.727396
0.727409
0.727409
0.727423
0.727437
0.72745
0.727464
0.727464
0.727478
0.727492
0.727505
0.727519
0.727519
0.727533
0.727547
0.72756
0.727574
0.727574
0.727588
0.727602
0.727615
0.727629
0.727629
0.727643
0.727657
0.727671
0.727684
0.727684
0.727698
0.727712
0.727726
0.72774
0.72774
0.727754
0.727767
0.727781
0.727795
0.727795
0.727809
0.727823
0.727837
0.727851
0.727851
0.727865
0.727879
0.727893
0.727906
0.727906
0.72792
0.727934
0.727948
0.727962
0.727962
0.727976
0.72799
0.728004
0.728018
0.728018
0.728032
0.728046
0.72806
0.728074
0.728074
0.728088
0.728102
0.728116
0.72813
0.72813
0.728144
0.728158
0.728172
0.728186
0.728186
0.728201
0.728215
0.728229
0.728243
0.728243
0.728257
0.728271
0.728285
0.728299
0.728299
0.728313
0.728327
0.728342
0.728356
0.728356
0.72837
0.728384
0.728398
0.728412
0.728412
0.728427
0.728441
0.728455
0.728469
0.728469
0.728483
0.728498
0.728512
0.728526
0.728526
0.72854
0.728555
0.728569
0.728583
0.728583
0.728597
0.728612
0.728626
0.72864
0.72864
0.728654
0.728669
0.728683
0.728697
0.728697
0.728712
0.728726
0.72874
0.728755
0.728755
0.728769
0.728783
0.728798
0.728812
0.728812
0.728826
0.728841
0.728855
0.72887
0.72887
0.728884
0.728898
0.728913
0.728927
0.728927
0.728942
0.728956
0.728971
0.728985
0.728985
0.728999
0.729014
0.729028
0.729043
0.729043
0.729057
0.729072
0.729086
0.729101
0.729101
0.729115
0.72913
0.729144
0.729159
0.729159
0.729174
0.729188
0.729203
0.729217
0.729217
0.729232
0.729246
0.729261
0.729275
0.729275
0.72929
0.729305
0.729319
0.729334
0.729334
0.729349
0.729363
0.729378
0.729392
0.729392
0.729407
0.729422
0.729436
0.729451
0.729451
0.729466
0.72948
0.729495
0.72951
0.72951
0.729525
0.729539
0.729554
0.729569
0.729569
0.729583
0.729598
0.729613
0.729628
0.729628
0.729643
0.729657
0.729672
0.729687
0.729687
0.729702
0.729716
0.729731
0.729746
0.729746
0.729761
0.729776
0.729791
0.729805
0.729805
0.72982
0.729835
0.72985
0.729865
0.729865
0.72988
0.729895
0.729909
0.729924
0.729924
0.729939
0.729954
0.729969
0.729984
0.729984
0.729999
0.730014
0.730029
0.730044
0.730044
0.730059
0.730074
0.730089
0.730104
0.730104
0.730119
0.730134
0.730149
0.730164
0.730164
0.730179
0.730194
0.730209
0.730224
0.730224
0.730239
0.730254
0.730269
0.730284
0.730284
0.730299
0.730314
0.730329
0.730344
0.730344
0.730359
0.730374
0.73039
0.730405
0.730405
0.73042
0.730435
0.73045
0.730465
0.730465
0.73048
0.730496
0.730511
0.730526
0.730526
0.730541
0.730556
0.730571
0.730587
0.730587
0.730602
0.730617
0.730632
0.730648
0.730648
0.730663
0.730678
0.730693
0.730709
0.730709
0.730724
0.730739
0.730754
0.73077
0.73077
0.730785
0.7308
0.730816
0.730831
0.730831
0.730846
0.730862
0.730877
0.730892
0.730892
0.730908
0.730923
0.730938
0.730954
0.730954
0.730969
0.730984
0.731
0.731015
0.731015
0.731031
0.731046
0.731061
0.731077
0.731077
0.731092
0.731108
0.731123
0.731139
0.731139
0.731154
0.73117
0.731185
0.731201
0.731201
0.731216
0.731232
0.731247
0.731263
0.731263
0.731278
0.731294
0.731309
0.731325
0.731325
0.73134
0.731356
0.731371
0.731387
0.731387
0.731402
0.731418
0.731434
0.731449
0.731449
0.731465
0.73148
0.731496
0.731512
0.731512
0.731527
0.731543
0.731559
0.731574
0.731574
0.73159
0.731606
0.731621
0.731637
0.731637
0.731653
0.731668
0.731684
0.7317
0.7317
0.731716
0.731731
0.731747
0.731763
0.731763
0.731778
0.731794
0.73181
0.731826
0.731826
0.731842
0.731857
0.731873
0.731889
0.731889
0.731905
0.73192
0.731936
0.731952
0.731952
0.731968
0.731984
0.732
0.732016
0.732016
0.732031
0.732047
0.732063
0.732079
0.732079
0.732095
0.732111
0.732127
0.732143
0.732143
0.732158
0.732174
0.73219
0.732206
0.732206
0.732222
0.732238
0.732254
0.73227
0.73227
0.732286
0.732302
0.732318
0.732334
0.732334
0.73235
0.732366
0.732382
0.732398
0.732398
0.732414
0.73243
0.732446
0.732462
0.732462
0.732478
0.732494
0.73251
0.732527
0.732527
0.732543
0.732559
0.732575
0.732591
0.732591
0.732607
0.732623
0.732639
0.732655
0.732655
0.732672
0.732688
0.732704
0.73272
0.73272
0.732736
0.732752
0.732769
0.732785
0.732785
0.732801
0.732817
0.732833
0.73285
0.73285
0.732866
0.732882
0.732898
0.732915
0.732915
0.732931
0.732947
0.732963
0.73298
0.73298
0.732996
0.733012
0.733029
0.733045
0.733045
0.733061
0.733078
0.733094
0.73311
0.73311
0.733127
0.733143
0.733159
0.733176
0.733176
0.733192
0.733208
0.733225
0.733241
0.733241
0.733258
0.733274
0.73329
0.733307
0.733307
0.733323
0.73334
0.733356
0.733373
0.733373
0.733389
0.733405
0.733422
0.733438
0.733438
0.733455
0.733471
0.733488
0.733504
0.733504
0.733521
0.733537
0.733554
0.733571
0.733571
0.733587
0.733604
0.73362
0.733637
0.733637
0.733653
0.73367
0.733687
0.733703
0.733703
0.73372
0.733736
0.733753
0.73377
0.73377
0.733786
0.733803
0.733819
0.733836
0.733836
0.733853
0.733869
0.733886
0.733903
0.733903
0.733919
0.733936
0.733953
0.73397
0.73397
0.733986
0.734003
0.73402
0.734037
0.734037
0.734053
0.73407
0.734087
0.734104
0.734104
0.73412
0.734137
0.734154
0.734171
0.734171
0.734188
0.734204
0.734221
0.734238
0.734238
0.734255
0.734272
0.734288
0.734305
0.734305
0.734322
0.734339
0.734356
0.734373
0.734373
0.73439
0.734407
0.734424
0.73444
0.73444
0.734457
0.734474
0.734491
0.734508
0.734508
0.734525
0.734542
0.734559
0.734576
0.734576
0.734593
0.73461
0.734627
0.734644
0.734644
0.734661
0.734678