<?xml version="1.0"?>
<VTKFile type="UnstructuredGrid" version="0.1" byte_order="LittleEndian">
<UnstructuredGrid>
<Piece NumberOfPoints="5000" NumberOfCells="4000">
<PointData Scalars="Reaction 0">
<DataArray type="Float32" Name="Reaction 0" format="ascii">
0.608465
0.608465
0.608465
0.608465
0.608465
0.608465
0.608465
0.608465
0.608465
0.608464
0.608464
0.608464
0.608464
0.608464
0.608464
0.608464
0.608464
0.608464
0.608464
0.608464
0.608464
0.608464
0.608464
0.608464
0.608464
0.608464
0.608463
0.608463
0.608463
0.608463
0.608463
0.608463
0.608463
0.608463
0.608462
0.608462
0.608462
0.608462
0.608462
0.608462
0.608462
0.608462
0.608461
0.608461
0.608461
0.608461
0.608461
0.608461
0.60846
0.60846
0.60846
0.60846
0.60846
0.608459
0.608459
0.608459
0.608459
0.608459
0.608458
0.608458
0.608458
0.608458
0.608458
0.608457
0.608457
0.608457
0.608457
0.608456
0.608456
0.608456
0.608456
0.608455
0.608455
0.608455
0.608454
0.608454
0.608454
0.608454
0.608453
0.608453
0.608453
0.608453
0.608452
0.608452
0.608451
0.608451
0.608451
0.608451
0.60845
0.60845
0.60845
0.608449
0.608449
0.608449
0.608448
0.608448
0.608448
0.608447
0.608447
0.608446
0.608446
0.608446
0.608445
0.608445
0.608444
0.608444
0.608444
0.608443
0.608443
0.608442
0.608442
0.608442
0.608441
0.608441
0.60844
0.60844
0.60844
0.608439
0.608439
0.608438
0.608438
0.608438
0.608437
0.608437
0.608436
0.608436
0.608435
0.608435
0.608434
0.608434
0.608434
0.608433
0.608433
0.608432
0.608431
0.608431
0.608431
0.60843
0.608429
0.608429
0.608429
0.608428
0.608427
0.608427
0.608426
0.608426
0.608426
0.608425
0.608424
0.608423
0.608423
0.608423
0.608422
0.608421
0.608421
0.608421
0.60842
0.608419
0.608419
0.608418
0.608418
0.608417
0.608416
0.608416
0.608415
0.608415
0.608414
0.608413
0.608413
0.608412
0.608412
0.608411
0.60841
0.608409
0.608409
0.608409
0.608408
0.608407
0.608406
0.608405
0.608405
0.608405
0.608404
0.608403
0.608402
0.608402
0.608401
0.6084
0.6084
0.608399
0.608399
0.608398
0.608397
0.608396
0.608395
0.608395
0.608394
0.608393
0.608393
0.608392
0.608392
0.608391
0.60839
0.608389
0.608388
0.608388
0.608387
0.608386
0.608385
0.608384
0.608384
0.608383
0.608382
0.608381
0.60838
0.60838
0.608379
0.608378
0.608377
0.608376
0.608376
0.608375
0.608374
0.608373
0.608372
0.608372
0.608371
0.60837
0.608369
0.608368
0.608368
0.608367
0.608366
0.608365
0.608364
0.608364
0.608363
0.608362
0.608361
0.60836
0.60836
0.608359
0.608358
0.608357
0.608355
0.608355
0.608354
0.608353
0.608352
0.608351
0.608351
0.60835
0.608349
0.608348
0.608346
0.608346
0.608345
0.608344
0.608343
0.608342
0.608342
0.608341
0.608339
0.608338
0.608337
0.608337
0.608336
0.608335
0.608333
0.608332
0.608332
0.608331
0.60833
0.608329
0.608327
0.608327
0.608326
0.608325
0.608324
0.608322
0.608322
0.608321
0.60832
0.608319
0.608317
0.608317
0.608316
0.608315
0.608313
0.608312
0.608312
0.608311
0.60831
0.608308
0.608307
0.608307
0.608306
0.608304
0.608303
0.608302
0.608302
0.6083
0.608299
0.608298
0.608296
0.608296
0.608295
0.608293
0.608292
0.608291
0.608291
0.608289
0.608288
0.608287
0.608285
0.608285
0.608284
0.608282
0.608281
0.608279
0.608279
0.608278
0.608277
0.608275
0.608274
0.608274
0.608272
0.608271
0.608269
0.608268
0.608268
0.608266
0.608265
0.608264
0.608262
0.608262
0.608261
0.608259
0.608258
0.608256
0.608256
0.608255
0.608253
0.608252
0.60825
0.60825
0.608248
0.608247
0.608245
0.608244
0.608244
0.608242
0.608241
0.608239
0.608238
0.608238
0.608236
0.608234
0.608233
0.608231
0.608231
0.60823
0.608228
0.608226
0.608225
0.608225
0.608223
0.608222
0.60822
0.608218
0.608218
0.608217
0.608215
0.608214
0.608212
0.608212
0.60821
0.608209
0.608207
0.608205
0.608205
0.608204
0.608202
0.6082
0.608199
0.608199
0.608197
0.608195
0.608193
0.608192
0.608192
0.60819
0.608188
0.608187
0.608185
0.608185
0.608183
0.608181
0.60818
0.608178
0.608178
0.608176
0.608174
0.608173
0.608171
0.608171
0.608169
0.608167
0.608166
0.608164
0.608164
0.608162
0.60816
0.608158
0.608157
0.608157
0.608155
0.608153
0.608151
0.608149
0.608149
0.608147
0.608146
0.608144
0.608142
0.608142
0.60814
0.608138
0.608136
0.608135
0.608135
0.608133
0.608131
0.608129
0.608127
0.608127
0.608125
0.608123
0.608121
0.608119
0.608119
0.608118
0.608116
0.608114
0.608112
0.608112
0.60811
0.608108
0.608106
0.608104
0.608104
0.608102
0.6081
0.608098
0.608096
0.608096
0.608094
0.608092
0.60809
0.608088
0.608088
0.608086
0.608084
0.608082
0.60808
0.60808
0.608078
0.608076
0.608074
0.608072
0.608072
0.60807
0.608068
0.608066
0.608064
0.608064
0.608062
0.60806
0.608058
0.608056
0.608056
0.608054
0.608052
0.60805
0.608047
0.608047
0.608045
0.608043
0.608041
0.608039
0.608039
0.608037
0.608034
0.608032
0.60803
0.60803
0.608028
0.608026
0.608023
0.608021
0.608021
0.608019
0.608017
0.608014
0.608012
0.608012
0.60801
0.608008
0.608005
0.608003
0.608003
0.608001
0.607998
0.607996
0.607994
0.607994
0.607991
0.607989
0.607986
0.607984
0.607984
0.607982
0.607979
0.607977
0.607974
0.607974
0.607972
0.60797
0.607967
0.607965
0.607965
0.607962
0.60796
0.607957
0.607955
0.607955
0.607953
0.60795
0.607948
0.607945
0.607945
0.607943
0.60794
0.607938
0.607935
0.607935
0.607933
0.60793
0.607928
0.607925
0.607925
0.607923
0.60792
0.607918
0.607915
0.607915
0.607913
0.60791
0.607908
0.607905
0.607905
0.607903
0.6079
0.607897
0.607895
0.607895
0.607892
0.60789
0.607887
0.607885
0.607885
0.607882
0.607879
0.607877
0.607874
0.607874
0.607872
0.607869
0.607866
0.607864
0.607864
0.607861
0.607858
0.607856
0.607853
0.607853
0.607851
0.607848
0.607845
0.607843
0.607843
0.60784
0.607837
0.607835
0.607832
0.607832
0.607829
0.607827
0.607824
0.607821
0.607821
0.607818
0.607816
0.607813
0.60781
0.60781
0.607808
0.607805
0.607802
0.607799
0.607799
0.607797
0.607794
0.607791
0.607788
0.607788
0.607786
0.607783
0.60778
0.607777
0.607777
0.607775
0.607772
0.607769
0.607766
0.607766
0.607764
0.607761
0.607758
0.607755
0.607755
0.607752
0.60775
0.607747
0.607744
0.607744
0.607741
0.607738
0.607735
0.607733
0.607733
0.60773
0.607727
0.607724
0.607721
0.607721
0.607718
0.607716
0.607713
0.60771
0.60771
0.607707
0.607704
0.607701
0.607698
0.607698
0.607695
0.607693
0.60769
0.607687
0.607687
0.607684
0.607681
0.607678
0.607675
0.607675
0.607672
0.607669
0.607666
0.607663
0.607663
0.60766
0.607657
0.607655
0.607652
0.607652
0.607649
0.607646
0.607643
0.60764
0.60764
0.607637
0.607634
0.607631
0.607628
0.607628
0.607625
0.607622
0.607619
0.607616
0.607616
0.607613
0.60761
0.607607
0.607604
0.607604
0.607601
0.607598
0.607595
0.607592
0.607592
0.607589
0.607586
0.607583
0.607579
0.607579
0.607576
0.607573
0.60757
0.607567
0.607567
0.607564
0.607561
0.607558
0.607555
0.607555
0.607552
0.607549
0.607546
0.607543
0.607543
0.60754
0.607536
0.607533
0.60753
0.60753
0.607527
0.607524
0.607521
0.607518
0.607518
0.607515
0.607511
0.607508
0.607505
0.607505
0.607502
0.607499
0.607496
0.607493
0.607493
0.607489
0.607486
0.607483
0.60748
0.60748
0.607477
0.607474
0.60747
0.607467
0.607467
0.607464
0.607461
0.607458
0.607454
0.607454
0.607451
0.607448
0.607445
0.607442
0.607442
0.607438
0.607435
0.607432
0.607429
0.607429
0.607425
0.607422
0.607419
0.607416
0.607416
0.607412
0.607409
0.607406
0.607403
0.607403
0.607399
0.607396
0.607393
0.60739
0.60739
0.607386
0.607383
0.60738
0.607377
0.607377
0.607373
0.60737
0.607367
0.607363
0.607363
0.60736
0.607357
0.607353
0.60735
0.60735
0.607347
0.607343
0.60734
0.607337
0.607337
0.607333
0.60733
0.607327
0.607323
0.607323
0.60732
0.607316
0.607313
0.60731
0.60731
0.607306
0.607303
0.607299
0.607296
0.607296
0.607292
0.607289
0.607286
0.607282
0.607282
0.607279
0.607275
0.607272
0.607268
0.607268
0.607265
0.607261
0.607258
0.607254
0.607254
0.60725
0.607247
0.607243
0.60724
0.60724
0.607236
0.607233
0.607229
0.607225
0.607225
0.607222
0.607218
0.607214
0.607211
0.607211
0.607207
0.607203
0.6072
0.607196
0.607196
0.607192
0.607189
0.607185
0.607181
0.607181
0.607178
0.607174
0.60717
0.607167
0.607167
0.607163
0.607159
0.607156
0.607152
0.607152
0.607148
0.607144
0.607141
0.607137
0.607137
0.607133
0.607129
0.607126
0.607122
0.607122
0.607118
0.607114
0.607111
0.607107
0.607107
0.607103
0.607099
0.607096
0.607092
0.607092
0.607088
0.607084
0.60708
0.607077
0.607077
0.607073
0.607069
0.607065
0.607061
0.607061
0.607058
0.607054
0.60705
0.607046
0.607046
0.607042
0.607039
0.607035
0.607031
0.607031
0.607027
0.607023
0.607019
0.607016
0.607016
0.607012
0.607008
0.607004
0.607
0.607
0.606996
0.606993
0.606989
0.606985
0.606985
0.606981
0.606977
0.606973
0.606969
0.606969
0.606965
0.606962
0.606958
0.606954
0.606954
0.60695
0.606946
0.606942
0.606938
0.606938
0.606934
0.60693
0.606927
0.606923
0.606923
0.606919
0.606915
0.606911
0.606907
0.606907
0.606903
0.606899
0.606895
0.606891
0.606891
0.606887
0.606883
0.606879
0.606875
0.606875
0.606872
0.606868
0.606864
0.60686
0.60686
0.606856
0.606852
0.606848
0.606844
0.606844
0.60684
0.606836
0.606832
0.606828
0.606828
0.606824
0.60682
0.606816
0.606812
0.606812
0.606808
0.606804
0.6068
0.606796
0.606796
0.606792
0.606788
0.606784
0.60678
0.60678
0.606776
0.606772
0.606768
0.606764
0.606764
0.60676
0.606756
0.606752
0.606748
0.606748
0.606744
0.60674
0.606736
0.606732
0.606732
0.606728
0.606724
0.60672
0.606716
0.606716
0.606711
0.606707
0.606703
0.606699
0.606699
0.606695
0.606691
0.606687
0.606683
0.606683
0.606679
0.606675
0.606671
0.606667
0.606667
0.606663
0.606659
0.606655
0.60665
0.60665
0.606646
0.606642
0.606638
0.606634
0.606634
0.60663
0.606626
0.606622
0.606618
0.606618
0.606613
0.606609
0.606605
0.606601
0.606601
0.606597
0.606593
0.606589
0.606584
0.606584
0.60658
0.606576
0.606572
0.606568
0.606568
0.606563
0.606559
0.606555
0.606551
0.606551
0.606546
0.606542
0.606538
0.606534
0.606534
0.606529
0.606525
0.606521
0.606517
0.606517
0.606512
0.606508
0.606504
0.606499
0.606499
0.606495
0.606491
0.606487
0.606482
0.606482
0.606478
0.606473
0.606469
0.606465
0.606465
0.60646
0.606456
0.606452
0.606447
0.606447
0.606443
0.606438
0.606434
0.60643
0.60643
0.606425
0.606421
0.606416
0.606412
0.606412
0.606408
0.606403
0.606399
0.606394
0.606394
0.60639
0.606386
0.606381
0.606377
0.606377
0.606372
0.606368
0.606363
0.606359
0.606359
0.606355
0.60635
0.606346
0.606341
0.606341
0.606337
0.606332
0.606328
0.606323
0.606323
0.606319
0.606314
0.60631
0.606306
0.606306
0.606301
0.606297
0.606292
0.606288
0.606288
0.606283
0.606279
0.606274
0.60627
0.60627
0.606265
0.606261
0.606256
0.606252
0.606252
0.606247
0.606243
0.606238
0.606234
0.606234
0.606229
0.606225
0.60622
0.606216
0.606216
0.606211
0.606207
0.606202
0.606198
0.606198
0.606193
0.606189
0.606184
0.60618
0.60618
0.606175
0.606171
0.606166
0.606162
0.606162
0.606157
0.606153
0.606148
0.606144
0.606144
0.606139
0.606135
0.60613
0.606125
0.606125
0.606121
0.606116
0.606112
0.606107
0.606107
0.606103
0.606098
0.606094
0.606089
0.606089
0.606085
0.60608
0.606075
0.606071
0.606071
0.606066
0.606062
0.606057
0.606053
0.606053
0.606048
0.606044
0.606039
0.606034
0.606034
0.60603
0.606025
0.606021
0.606016
0.606016
0.606012
0.606007
0.606002
0.605998
0.605998
0.605993
0.605989
0.605984
0.605979
0.605979
0.605975
0.60597
0.605966
0.605961
0.605961
0.605956
0.605952
0.605947
0.605943
0.605943
0.605938
0.605933
0.605929
0.605924
0.605924
0.60592
0.605915
0.60591
0.605906
0.605906
0.605901
0.605896
0.605892
0.605887
0.605887
0.605882
0.605878
0.605873
0.605868
0.605868
0.605864
0.605859
0.605854
0.60585
0.60585
0.605845
0.60584
0.605835
0.605831
0.605831
0.605826
0.605821
0.605817
0.605812
0.605812
0.605807
0.605802
0.605798
0.605793
0.605793
0.605788
0.605783
0.605779
0.605774
0.605774
0.605769
0.605764
0.60576
0.605755
0.605755
0.60575
0.605745
0.60574
0.605736
0.605736
0.605731
0.605726
0.605721
0.605716
0.605716
0.605711
0.605707
0.605702
0.605697
0.605697
0.605692
0.605687
0.605682
0.605678
0.605678
0.605673
0.605668
0.605663
0.605658
0.605658
0.605653
0.605649
0.605644
0.605639
0.605639
0.605634
0.605629
0.605624
0.60562
0.60562
0.605615
0.60561
0.605605
0.6056
0.6056
0.605595
0.60559
0.605586
0.605581
0.605581
0.605576
0.605571
0.605566
0.605561
0.605561
0.605556
0.605551
0.605547
0.605542
0.605542
0.605537
0.605532
0.605527
0.605522
0.605522
0.605517
0.605513
0.605508
0.605503
0.605503
0.605498
0.605493
0.605488
0.605483
0.605483
0.605478
0.605474
0.605469
0.605464
0.605464
0.605459
0.605454
0.605449
0.605444
0.605444
0.605439
0.605434
0.60543
0.605425
0.605425
0.60542
0.605415
0.60541
0.605405
0.605405
0.6054
0.605395
0.60539
0.605386
0.605386
0.605381
0.605376
0.605371
0.605366
0.605366
0.605361
0.605356
0.605351
0.605346
0.605346
0.605342
0.605337
0.605332
0.605327
0.605327
0.605322
0.605317
0.605312
0.605307
0.605307
0.605302
0.605297
0.605292
0.605288
0.605288
0.605283
0.605278
0.605273
0.605268
0.605268
0.605263
0.605258
0.605253
0.605248
0.605248
0.605243
0.605238
0.605233
0.605228
0.605228
0.605223
0.605219
0.605214
0.605209
0.605209
0.605204
0.605199
0.605194
0.605189
0.605189
0.605184
0.605179
0.605174
0.605169
0.605169
0.605164
0.605159
0.605154
0.605149
0.605149
0.605144
0.605139
0.605134
0.605129
0.605129
0.605124
0.605119
0.605114
0.605109
0.605109
0.605104
0.605099
0.605094
0.605089
0.605089
0.605084
0.605079
0.605074
0.605068
0.605068
0.605063
0.605058
0.605053
0.605048
0.605048
0.605043
0.605038
0.605033
0.605028
0.605028
0.605023
0.605018
0.605013
0.605008
0.605008
0.605003
0.604998
0.604993
0.604988
0.604988
0.604982
0.604977
0.604972
0.604967
0.604967
0.604962
0.604957
0.604952
0.604947
0.604947
0.604942
0.604937
0.604932
0.604927
0.604927
0.604922
0.604917
0.604911
0.604906
0.604906
0.604901
0.604896
0.604891
0.604886
0.604886
0.604881
0.604876
0.604871
0.604866
0.604866
0.604861
0.604856
0.604851
0.604845
0.604845
0.60484
0.604835
0.60483
0.604825
0.604825
0.60482
0.604815
0.60481
0.604805
0.604805
0.6048
0.604795
0.60479
0.604785
0.604785
0.60478
0.604774
0.604769
0.604764
0.604764
0.604759
0.604754
0.604749
0.604744
0.604744
0.604739
0.604734
0.604729
0.604724
0.604724
0.604719
0.604714
0.604709
0.604703
0.604703
0.604698
0.604693
0.604688
0.604683
0.604683
0.604678
0.604673
0.604668
0.604663
0.604663
0.604658
0.604653
0.604648
0.604643
0.604643
0.604637
0.604632
0.604627
0.604622
0.604622
0.604617
0.604612
0.604607
0.604602
0.604602
0.604597
0.604592
0.604586
0.604581
0.604581
0.604576
0.604571
0.604566
0.604561
0.604561
0.604556
0.604551
0.604545
0.60454
0.60454
0.604535
0.60453
0.604525
0.60452
0.60452
0.604515
0.60451
0.604505
0.604499
0.604499
0.604494
0.604489
0.604484
0.604479
0.604479
0.604474
0.604469
0.604463
0.604458
0.604458
0.604453
0.604448
0.604443
0.604438
0.604438
0.604432
0.604427
0.604422
0.604417
0.604417
0.604412
0.604407
0.604402
0.604396
0.604396
0.604391
0.604386
0.604381
0.604376
0.604376
0.604371
0.604365
0.60436
0.604355
0.604355
0.60435
0.604345
0.60434
0.604334
0.604334
0.604329
0.604324
0.604319
0.604314
0.604314
0.604309
0.604303
0.604298
0.604293
0.604293
0.604288
0.604283
0.604278
0.604272
0.604272
0.604267
0.604262
0.604257
0.604252
0.604252
0.604247
0.604242
0.604236
0.604231
0.604231
0.604226
0.604221
0.604216
0.604211
0.604211
0.604205
0.6042
0.604195
0.60419
0.60419
0.604185
0.60418
0.604175
0.604169
0.604169
0.604164
0.604159
0.604154
0.604149
0.604149
0.604144
0.604139
0.604133
0.604128
0.604128
0.604123
0.604118
0.604113
0.604108
0.604108
0.604103
0.604098
0.604092
0.604087
0.604087
0.604082
0.604077
0.604072
0.604067
0.604067
0.604062
0.604056
0.604051
0.604046
0.604046
0.604041
0.604036
0.604031
0.604026
0.604026
0.60402
0.604015
0.60401
0.604005
0.604005
0.604
0.603995
0.603989
0.603984
0.603984
0.603979
0.603974
0.603969
0.603964
0.603964
0.603958
0.603953
0.603948
0.603943
0.603943
0.603938
0.603933
0.603928
0.603922
0.603922
0.603917
0.603912
0.603907
0.603902
0.603902
0.603897
0.603892
0.603886
0.603881
0.603881
0.603876
0.603871
0.603866
0.603861
0.603861
0.603855
0.60385
0.603845
0.60384
0.60384
0.603835
0.60383
0.603824
0.603819
0.603819
0.603814
0.603809
0.603804
0.603799
0.603799
0.603793
0.603788
0.603783
0.603778
0.603778
0.603773
0.603768
0.603762
0.603757
0.603757
0.603752
0.603747
0.603742
0.603737
0.603737
0.603731
0.603726
0.603721
0.603716
0.603716
0.603711
0.603706
0.603701
0.603695
0.603695
0.60369
0.603685
0.60368
0.603675
0.603675
0.60367
0.603665
0.603659
0.603654
0.603654
0.603649
0.603644
0.603639
0.603634
0.603634
0.603629
0.603623
0.603618
0.603613
0.603613
0.603608
0.603603
0.603598
0.603593
0.603593
0.603588
0.603582
0.603577
0.603572
0.603572
0.603567
0.603562
0.603557
0.603552
0.603552
0.603547
0.603542
0.603536
0.603531
0.603531
0.603526
0.603521
0.603516
0.603511
0.603511
0.603506
0.603501
0.603495
0.60349
0.60349
0.603485
0.60348
0.603475
0.60347
0.60347
0.603465
0.60346
0.603455
0.603449
0.603449
0.603444
0.603439
0.603434
0.603429
0.603429
0.603424
0.603419
0.603414
0.603408
0.603408
0.603403
0.603398
0.603393
0.603388
0.603388
0.603383
0.603378
0.603373
0.603368
0.603368
0.603363
0.603357
0.603352
0.603347
0.603347
0.603342
0.603337
0.603332
0.603327
0.603327
0.603322
0.603317
0.603312
0.603306
0.603306
0.603301
0.603296
0.603291
0.603286
0.603286
0.603281
0.603276
0.603271
0.603266
0.603266
0.603261
0.603255
0.60325
0.603245
0.603245
0.60324
0.603235
0.60323
0.603225
0.603225
0.60322
0.603215
0.60321
0.603205
0.603205
0.603199
0.603194
0.603189
0.603184
0.603184
0.603179
0.603174
0.603169
0.603164
0.603164
0.603159
0.603154
0.603149
0.603144
0.603144
0.603139
0.603134
0.603129
0.603123
0.603123
0.603118
0.603113
0.603108
0.603103
0.603103
0.603098
0.603093
0.603088
0.603083
0.603083
0.603078
0.603073
0.603068
0.603063
0.603063
0.603058
0.603053
0.603048
0.603043
0.603043
0.603038
0.603033
0.603028
0.603023
0.603023
0.603018
0.603013
0.603008
0.603003
0.603003
0.602998
0.602993
0.602988
0.602983
0.602983
0.602978
0.602972
0.602967
0.602962
0.602962
0.602957
0.602952
0.602947
0.602942
0.602942
0.602937
0.602932
0.602927
0.602922
0.602922
0.602917
0.602912
0.602907
0.602902
0.602902
0.602897
0.602892
0.602887
0.602882
0.602882
0.602877
0.602872
0.602867
0.602862
0.602862
0.602857
0.602852
0.602847
0.602842
0.602842
0.602837
0.602832
0.602827
0.602822
0.602822
0.602817
0.602813
0.602808
0.602803
0.602803
0.602798
0.602793
0.602788
0.602783
0.602783
0.602778
0.602773
0.602768
0.602763
0.602763
0.602758
0.602753
0.602748
0.602743
0.602743
0.602738
0.602733
0.602728
0.602723
0.602723
0.602718
0.602713
0.602708
0.602703
0.602703
0.602698
0.602693
0.602688
0.602683
0.602683
0.602679
0.602674
0.602669
0.602664
0.602664
0.602659
0.602654
0.602649
0.602644
0.602644
0.602639
0.602634
0.602629
0.602624
0.602624
0.602619
0.602615
0.60261
0.602605
0.602605
0.6026
0.602595
0.60259
0.602585
0.602585
0.60258
0.602575
0.60257
0.602566
0.602566
0.602561
0.602556
0.602551
0.602546
0.602546
0.602541
0.602536
0.602531
0.602526
0.602526
0.602522
0.602517
0.602512
0.602507
0.602507
0.602502
0.602497
0.602492
0.602487
0.602487
0.602482
0.602478
0.602473
0.602468
0.602468
0.602463
0.602458
0.602453
0.602448
0.602448
0.602443
0.602439
0.602434
0.602429
0.602429
0.602424
0.602419
0.602415
0.60241
0.60241
0.602405
0.6024
0.602395
0.60239
0.60239
0.602386
0.602381
0.602376
0.602371
0.602371
0.602366
0.602361
0.602357
0.602352
0.602352
0.602347
0.602342
0.602337
0.602333
0.602333
0.602328
0.602323
0.602318
0.602313
0.602313
0.602309
0.602304
0.602299
0.602294
0.602294
0.602289
0.602285
0.60228
0.602275
0.602275
0.60227
0.602265
0.602261
0.602256
0.602256
0.602251
0.602246
0.602242
0.602237
0.602237
0.602232
0.602227
0.602222
0.602218
0.602218
0.602213
0.602208
0.602203
0.602199
0.602199
0.602194
0.602189
0.602184
0.60218
0.60218
0.602175
0.60217
0.602166
0.602161
0.602161
0.602156
0.602151
0.602147
0.602142
0.602142
0.602137
0.602132
0.602128
0.602123
0.602123
0.602118
0.602114
0.602109
0.602104
0.602104
0.602099
0.602095
0.60209
0.602085
0.602085
0.602081
0.602076
0.602071
0.602067
0.602067
0.602062
0.602057
0.602052
0.602048
0.602048
0.602043
0.602038
0.602034
0.602029
0.602029
0.602024
0.60202
0.602015
0.60201
0.60201
0.602006
0.602001
0.601996
0.601992
0.601992
0.601987
0.601983
0.601978
0.601973
0.601973
0.601969
0.601964
0.601959
0.601955
0.601955
0.60195
0.601946
0.601941
0.601936
0.601936
0.601932
0.601927
0.601922
0.601918
0.601918
0.601913
0.601909
0.601904
0.601899
0.601899
0.601895
0.60189
0.601886
0.601881
0.601881
0.601876
0.601872
0.601867
0.601863
0.601863
0.601858
0.601853
0.601849
0.601844
0.601844
0.60184
0.601835
0.601831
0.601826
0.601826
0.601821
0.601817
0.601812
0.601808
0.601808
0.601803
0.601799
0.601794
0.60179
0.60179
0.601785
0.60178
0.601776
0.601771
0.601771
0.601767
0.601762
0.601758
0.601753
0.601753
0.601749
0.601744
0.60174
0.601735
0.601735
0.601731
0.601726
0.601722
0.601717
0.601717
0.601713
0.601708
0.601704
0.601699
0.601699
0.601695
0.60169
0.601686
0.601681
0.601681
0.601677
0.601672
0.601668
0.601663
0.601663
0.601659
0.601654
0.60165
0.601645
0.601645
0.601641
0.601636
0.601632
0.601627
0.601627
0.601623
0.601619
0.601614
0.60161
0.60161
0.601605
0.601601
0.601597
0.601592
0.601592
0.601588
0.601583
0.601579
0.601575
0.601575
0.60157
0.601566
0.601561
0.601557
0.601557
0.601553
0.601548
0.601544
0.601539
0.601539
0.601535
0.601531
0.601526
0.601522
0.601522
0.601517
0.601513
0.601509
0.601504
0.601504
0.6015
0.601496
0.601491
0.601487
0.601487
0.601482
0.601478
0.601474
0.601469
0.601469
0.601465
0.601461
0.601456
0.601452
0.601452
0.601448
0.601443
0.601439
0.601435
0.601435
0.60143
0.601426
0.601422
0.601417
0.601417
0.601413
0.601409
0.601404
0.6014
0.6014
0.601396
0.601392
0.601387
0.601383
0.601383
0.601379
0.601374
0.60137
0.601366
0.601366
0.601362
0.601357
0.601353
0.601349
0.601349
0.601345
0.60134
0.601336
0.601332
0.601332
0.601327
0.601323
0.601319
0.601315
0.601315
0.60131
0.601306
0.601302
0.601298
0.601298
0.601293
0.601289
0.601285
0.601281
0.601281
0.601276
0.601272
0.601268
0.601264
0.601264
0.60126
0.601256
0.601251
0.601247
0.601247
0.601243
0.601239
0.601235
0.60123
0.60123
0.601226
0.601222
0.601218
0.601214
0.601214
0.60121
0.601206
0.601201
0.601197
0.601197
0.601193
0.601189
0.601185
0.601181
0.601181
0.601176
0.601172
0.601168
0.601164
0.601164
0.60116
0.601156
0.601152
0.601148
0.601148
0.601143
0.601139
0.601135
0.601131
0.601131
0.601127
0.601123
0.601119
0.601115
0.601115
0.601111
0.601107
0.601102
0.601098
0.601098
0.601094
0.60109
0.601086
0.601082
0.601082
0.601078
0.601074
0.60107
0.601066
0.601066
0.601062
0.601058
0.601054
0.60105
0.60105
0.601046
0.601042
0.601038
0.601034
0.601034
0.601029
0.601025
0.601021
0.601017
0.601017
0.601013
0.601009
0.601005
0.601001
0.601001
0.600997
0.600993
0.600989
0.600985
0.600985
0.600981
0.600977
0.600973
0.600969
0.600969
0.600965
0.600961
0.600957
0.600953
0.600953
0.600949
0.600945
0.600942
0.600938
0.600938
0.600934
0.60093
0.600926
0.600922
0.600922
0.600918
0.600914
0.60091
0.600906
0.600906
0.600902
0.600899
0.600895
0.600891
0.600891
0.600887
0.600883
0.600879
0.600875
0.600875
0.600871
0.600867
0.600863
0.60086
0.60086
0.600856
0.600852
0.600848
0.600844
0.600844
0.60084
0.600836
0.600832
0.600829
0.600829
0.600825
0.600821
0.600817
0.600813
0.600813
0.600809
0.600806
0.600802
0.600798
0.600798
0.600794
0.60079
0.600786
0.600783
0.600783
0.600779
0.600775
0.600771
0.600767
0.600767
0.600764
0.60076
0.600756
0.600752
0.600752
0.600749
0.600745
0.600741
0.600737
0.600737
0.600733
0.60073
0.600726
0.600722
0.600722
0.600718
0.600715
0.600711
0.600707
0.600707
0.600703
0.6007
0.600696
0.600692
0.600692
0.600688
0.600685
0.600681
0.600677
0.600677
0.600673
0.60067
0.600666
0.600662
0.600662
0.600659
0.600655
0.600651
0.600648
0.600648
0.600644
0.60064
0.600637
0.600633
0.600633
0.600629
0.600626
0.600622
0.600618
0.600618
0.600615
0.600611
0.600608
0.600604
0.600604
0.6006
0.600597
0.600593
0.600589
0.600589
0.600586
0.600582
0.600579
0.600575
0.600575
0.600571
0.600568
0.600564
0.600561
0.600561
0.600557
0.600553
0.60055
0.600546
0.600546
0.600543
0.600539
0.600535
0.600532
0.600532
0.600528
0.600525
0.600521
0.600518
0.600518
0.600514
0.600511
0.600507
0.600504
0.600504
0.6005
0.600496
0.600493
0.600489
0.600489
0.600486
0.600482
0.600479
0.600475
0.600475
0.600472
0.600468
0.600465
0.600461
0.600461
0.600458
0.600454
0.600451
0.600447
0.600447
0.600444
0.60044
0.600437
0.600433
0.600433
0.60043
0.600427
0.600423
0.60042
0.60042
0.600416
0.600413
0.600409
0.600406
0.600406
0.600402
0.600399
0.600396
0.600392
0.600392
0.600389
0.600385
0.600382
0.600379
0.600379
0.600375
0.600372
0.600369
0.600365
0.600365
0.600362
0.600358
0.600355
0.600352
0.600352
0.600348
0.600345
0.600342
0.600338
0.600338
0.600335
0.600332
0.600328
0.600325
0.600325
0.600322
0.600318
0.600315
0.600312
0.600312
0.600308
0.600305
0.600302
0.600298
0.600298
0.600295
0.600292
0.600289
0.600285
0.600285
0.600282
0.600279
0.600275
0.600272
0.600272
0.600269
0.600266
0.600262
0.600259
0.600259
0.600256
0.600253
0.600249
0.600246
0.600246
0.600243
0.60024
0.600236
0.600233
0.600233
0.60023
0.600227
0.600223
0.60022
0.60022
0.600217
0.600214
0.600211
0.600207
0.600207
0.600204
0.600201
0.600198
0.600195
0.600195
0.600191
0.600188
0.600185
0.600182
0.600182
0.600179
0.600175
0.600172
0.600169
0.600169
0.600166
0.600163
0.60016
0.600157
0.600157
0.600154
0.600151
0.600147
0.600144
0.600144
0.600141
0.600138
0.600135
0.600132
0.600132
0.600129
0.600126
0.600123
0.60012
0.60012
0.600117
0.600114
0.60011
0.600107
0.600107
0.600104
0.600101
0.600098
0.600095
0.600095
0.600092
0.600089
0.600086
0.600083
0.600083
0.60008
0.600077
0.600074
0.600071
0.600071
0.600068
0.600065
0.600062
0.600059
0.600059
0.600056
0.600053
0.60005
0.600047
0.600047
0.600044
0.600041
0.600038
0.600035
0.600035
0.600032
0.600029
0.600026
0.600023
0.600023
0.60002
0.600017
0.600014
0.600012
0.600012
0.600009
0.600006
0.600003
0.6
0.6
0.599997
0.599994
0.599991
0.599988
0.599988
0.599985
0.599982
0.599979
0.599976
0.599976
0.599974
0.599971
0.599968
0.599965
0.599965
0.599962
0.599959
0.599956
0.599954
0.599954
0.599951
0.599948
0.599945
0.599942
0.599942
0.59994
0.599937
0.599934
0.599931
0.599931
0.599928
0.599926
0.599923
0.59992
0.59992
0.599917
0.599914
0.599912
0.599909
0.599909
0.599906
0.599903
0.599901
0.599898
0.599898
0.599895
0.599892
0.59989
0.599887
0.599887
0.599884
0.599881
0.599879
0.599876
0.599876
0.599873
0.59987
0.599868
0.599865
0.599865
0.599862
0.59986
0.599857
0.599854
0.599854
0.599852
0.599849
0.599846
0.599843
0.599843
0.599841
0.599838
0.599835
0.599833
0.599833
0.59983
0.599827
0.599825
0.599822
0.599822
0.59982
0.599817
0.599814
0.599812
0.599812
0.599809
0.599806
0.599804
0.599801
0.599801
0.599798
0.599796
0.599793
0.599791
0.599791
0.599788
0.599785
0.599783
0.59978
0.59978
0.599778
0.599775
0.599773
0.59977
0.59977
0.599768
0.599765
0.599763
0.59976
0.59976
0.599758
0.599755
0.599753
0.59975
0.59975
0.599748
0.599745
0.599743
0.59974
0.59974
0.599738
0.599735
0.599733
0.59973
0.59973
0.599728
0.599725
0.599723
0.59972
0.59972
0.599718
0.599715
0.599713
0.59971
0.59971
0.599708
0.599706
0.599703
0.599701
0.599701
0.599698
0.599696
0.599693
0.599691
0.599691
0.599689
0.599686
0.599684
0.599681
0.599681
0.599679
0.599677
0.599674
0.599672
0.599672
0.599669
0.599667
0.599665
0.599662
0.599662
0.59966
0.599658
0.599655
0.599653
0.599653
0.599651
0.599648
0.599646
0.599644
0.599644
0.599641
0.599639
0.599636
0.599634
0.599634
0.599632
0.59963
0.599627
0.599625
0.599625
0.599623
0.59962
0.599618
0.599616
0.599616
0.599614
0.599611
0.599609
0.599607
0.599607
0.599605
0.599603
0.5996
0.599598
0.599598
0.599596
0.599594
0.599591
0.599589
0.599589
0.599587
0.599585
0.599583
0.59958
0.59958
0.599578
0.599576
0.599574
0.599572
0.599572
0.59957
0.599567
0.599565
0.599563
0.599563
0.599561
0.599559
0.599557
0.599555
0.599555
0.599552
0.59955
0.599548
0.599546
0.599546
0.599544
0.599542
0.59954
0.599538
0.599538
0.599535
0.599533
0.599531
0.599529
0.599529
0.599527
0.599525
0.599523
0.599521
0.599521
0.599519
0.599517
0.599515
0.599513
0.599513
0.59951
0.599508
0.599506
0.599504
0.599504
0.599502
0.5995
0.599498
0.599496
0.599496
0.599494
0.599492
0.59949
0.599488
0.599488
0.599486
0.599484
0.599482
0.59948
0.59948
0.599478
0.599476
0.599474
0.599472
0.599472
0.599471
0.599469
0.599467
0.599465
0.599465
0.599463
0.599461
0.599459
0.599457
0.599457
0.599455
0.599453
0.599451
0.59945
0.59945
0.599448
0.599446
0.599444
0.599442
0.599442
0.59944
0.599438
0.599436
0.599435
0.599435
0.599433
0.599431
0.599429
0.599427
0.599427
0.599425
0.599423
0.599422
0.59942
0.59942
0.599418
0.599416
0.599414
0.599413
0.599413
0.599411
0.599409
0.599407
0.599405
0.599405
0.599404
0.599402
0.5994
0.599398
0.599398
0.599396
0.599395
0.599393
0.599391
0.599391
0.599389
0.599388
0.599386
0.599384
0.599384
0.599382
0.599381
0.599379
0.599377
0.599377
0.599375
0.599374
0.599372
0.59937
0.59937
0.599369
0.599367
0.599365
0.599364
0.599364
0.599362
0.59936
0.599359
0.599357
0.599357
0.599356
0.599354
0.599352
0.599351
0.599351
0.599349
0.599347
0.599346
0.599344
0.599344
0.599343
0.599341
0.599339
0.599338
0.599338
0.599336
0.599335
0.599333
0.599331
0.599331
0.59933
0.599328
0.599327
0.599325
0.599325
0.599324
0.599322
0.599321
0.599319
0.599319
0.599317
0.599316
0.599314
0.599313
0.599313
0.599311
0.59931
0.599308
0.599307
0.599307
0.599305
0.599304
0.599302
0.599301
0.599301
0.599299
0.599298
0.599296
0.599295
0.599295
0.599293
0.599292
0.599291
0.599289
0.599289
0.599288
0.599286
0.599285
0.599283
0.599283
0.599282
0.59928
0.599279
0.599278
0.599278
0.599276
0.599275
0.599273
0.599272
0.599272
0.599271
0.599269
0.599268
0.599267
0.599267
0.599265
0.599264
0.599263
0.599261
0.599261
0.59926
0.599259
0.599257
0.599256
0.599256
0.599255
0.599253
0.599252
0.599251
0.599251
0.59925
0.599248
0.599247
0.599246
0.599246
0.599244
0.599243
0.599242
0.599241
0.599241
0.599239
0.599238
0.599237
0.599236
0.599236
0.599234
0.599233
0.599232
0.599231
0.599231
0.599229
0.599228
0.599227
0.599226
0.599226
0.599225
0.599223
0.599222
0.599221
0.599221
0.59922
0.599219
0.599217
0.599216
0.599216
0.599215
0.599214
0.599213
0.599211
0.599211
0.59921
0.599209
0.599208