<?xml version="1.0"?>
<VTKFile type="UnstructuredGrid" version="0.1" byte_order="LittleEndian">
<UnstructuredGrid>
<Piece NumberOfPoints="5000" NumberOfCells="4000">
<PointData Scalars="Reaction 0">
<DataArray type="Float32" Name="Reaction 0" format="ascii">
0.404296
0.404296
0.404296
0.404296
0.404296
0.404296
0.404296
0.404296
0.404296
0.404296
0.404296
0.404297
0.404297
0.404297
0.404298
0.404298
0.404298
0.404298
0.404299
0.404299
0.404299
0.4043
0.4043
0.404301
0.404301
0.404301
0.404302
0.404302
0.404303
0.404304
0.404304
0.404304
0.404305
0.404306
0.404307
0.404307
0.404307
0.404308
0.404309
0.40431
0.40431
0.404311
0.404312
0.404313
0.404314
0.404314
0.404315
0.404316
0.404317
0.404318
0.404318
0.404319
0.404321
0.404322
0.404323
0.404323
0.404324
0.404326
0.404327
0.404328
0.404328
0.40433
0.404331
0.404333
0.404334
0.404334
0.404336
0.404337
0.404339
0.40434
0.40434
0.404342
0.404343
0.404345
0.404347
0.404347
0.404349
0.40435
0.404352
0.404354
0.404354
0.404356
0.404358
0.404359
0.404361
0.404361
0.404363
0.404365
0.404367
0.404369
0.404369
0.404371
0.404374
0.404376
0.404378
0.404378
0.40438
0.404382
0.404384
0.404387
0.404387
0.404389
0.404391
0.404394
0.404396
0.404396
0.404398
0.404401
0.404403
0.404406
0.404406
0.404408
0.404411
0.404413
0.404416
0.404416
0.404419
0.404421
0.404424
0.404427
0.404427
0.40443
0.404432
0.404435
0.404438
0.404438
0.404441
0.404444
0.404447
0.40445
0.40445
0.404453
0.404456
0.404459
0.404462
0.404462
0.404465
0.404468
0.404471
0.404474
0.404474
0.404477
0.404481
0.404484
0.404487
0.404487
0.40449
0.404494
0.404497
0.404501
0.404501
0.404504
0.404508
0.404511
0.404515
0.404515
0.404518
0.404522
0.404525
0.404529
0.404529
0.404533
0.404536
0.40454
0.404544
0.404544
0.404547
0.404551
0.404555
0.404559
0.404559
0.404563
0.404567
0.404571
0.404575
0.404575
0.404579
0.404583
0.404587
0.404591
0.404591
0.404595
0.404599
0.404603
0.404607
0.404607
0.404612
0.404616
0.40462
0.404625
0.404625
0.404629
0.404633
0.404638
0.404642
0.404642
0.404647
0.404651
0.404656
0.40466
0.40466
0.404665
0.404669
0.404674
0.404679
0.404679
0.404683
0.404688
0.404693
0.404698
0.404698
0.404702
0.404707
0.404712
0.404717
0.404717
0.404722
0.404727
0.404732
0.404737
0.404737
0.404742
0.404747
0.404752
0.404757
0.404757
0.404762
0.404767
0.404773
0.404778
0.404778
0.404783
0.404788
0.404794
0.404799
0.404799
0.404804
0.40481
0.404815
0.404821
0.404821
0.404826
0.404832
0.404837
0.404843
0.404843
0.404848
0.404854
0.40486
0.404865
0.404865
0.404871
0.404877
0.404882
0.404888
0.404888
0.404894
0.4049
0.404906
0.404912
0.404912
0.404918
0.404924
0.40493
0.404936
0.404936
0.404942
0.404948
0.404954
0.40496
0.40496
0.404966
0.404972
0.404979
0.404985
0.404985
0.404991
0.404997
0.405004
0.40501
0.40501
0.405017
0.405023
0.405029
0.405036
0.405036
0.405042
0.405049
0.405056
0.405062
0.405062
0.405069
0.405075
0.405082
0.405089
0.405089
0.405096
0.405102
0.405109
0.405116
0.405116
0.405123
0.40513
0.405137
0.405144
0.405144
0.40515
0.405157
0.405164
0.405172
0.405172
0.405179
0.405186
0.405193
0.4052
0.4052
0.405207
0.405214
0.405222
0.405229
0.405229
0.405236
0.405244
0.405251
0.405258
0.405258
0.405266
0.405273
0.405281
0.405288
0.405288
0.405296
0.405303
0.405311
0.405319
0.405319
0.405326
0.405334
0.405342
0.405349
0.405349
0.405357
0.405365
0.405373
0.405381
0.405381
0.405388
0.405396
0.405404
0.405412
0.405412
0.40542
0.405428
0.405436
0.405444
0.405444
0.405452
0.405461
0.405469
0.405477
0.405477
0.405485
0.405493
0.405502
0.40551
0.40551
0.405518
0.405527
0.405535
0.405543
0.405543
0.405552
0.40556
0.405569
0.405577
0.405577
0.405586
0.405595
0.405603
0.405612
0.405612
0.40562
0.405629
0.405638
0.405647
0.405647
0.405655
0.405664
0.405673
0.405682
0.405682
0.405691
0.4057
0.405709
0.405718
0.405718
0.405727
0.405736
0.405745
0.405754
0.405754
0.405763
0.405772
0.405781
0.405791
0.405791
0.4058
0.405809
0.405819
0.405828
0.405828
0.405837
0.405847
0.405856
0.405865
0.405865
0.405875
0.405884
0.405894
0.405904
0.405904
0.405913
0.405923
0.405932
0.405942
0.405942
0.405952
0.405961
0.405971
0.405981
0.405981
0.405991
0.406001
0.406011
0.40602
0.40602
0.40603
0.40604
0.40605
0.40606
0.40606
0.40607
0.40608
0.406091
0.406101
0.406101
0.406111
0.406121
0.406131
0.406141
0.406141
0.406152
0.406162
0.406172
0.406183
0.406183
0.406193
0.406203
0.406214
0.406224
0.406224
0.406235
0.406245
0.406256
0.406267
0.406267
0.406277
0.406288
0.406298
0.406309
0.406309
0.40632
0.406331
0.406341
0.406352
0.406352
0.406363
0.406374
0.406385
0.406396
0.406396
0.406407
0.406418
0.406429
0.40644
0.40644
0.406451
0.406462
0.406473
0.406484
0.406484
0.406495
0.406507
0.406518
0.406529
0.406529
0.40654
0.406552
0.406563
0.406574
0.406574
0.406586
0.406597
0.406609
0.40662
0.40662
0.406632
0.406643
0.406655
0.406667
0.406667
0.406678
0.40669
0.406701
0.406713
0.406713
0.406725
0.406737
0.406749
0.40676
0.40676
0.406772
0.406784
0.406796
0.406808
0.406808
0.40682
0.406832
0.406844
0.406856
0.406856
0.406868
0.40688
0.406892
0.406905
0.406905
0.406917
0.406929
0.406941
0.406954
0.406954
0.406966
0.406978
0.406991
0.407003
0.407003
0.407016
0.407028
0.40704
0.407053
0.407053
0.407066
0.407078
0.407091
0.407103
0.407103
0.407116
0.407129
0.407141
0.407154
0.407154
0.407167
0.40718
0.407193
0.407205
0.407205
0.407218
0.407231
0.407244
0.407257
0.407257
0.40727
0.407283
0.407296
0.407309
0.407309
0.407323
0.407336
0.407349
0.407362
0.407362
0.407375
0.407389
0.407402
0.407415
0.407415
0.407428
0.407442
0.407455
0.407469
0.407469
0.407482
0.407496
0.407509
0.407523
0.407523
0.407536
0.40755
0.407564
0.407577
0.407577
0.407591
0.407605
0.407618
0.407632
0.407632
0.407646
0.40766
0.407674
0.407687
0.407687
0.407701
0.407715
0.407729
0.407743
0.407743
0.407757
0.407771
0.407785
0.4078
0.4078
0.407814
0.407828
0.407842
0.407856
0.407856
0.407871
0.407885
0.407899
0.407914
0.407914
0.407928
0.407942
0.407957
0.407971
0.407971
0.407986
0.408
0.408015
0.408029
0.408029
0.408044
0.408059
0.408073
0.408088
0.408088
0.408103
0.408117
0.408132
0.408147
0.408147
0.408162
0.408177
0.408191
0.408206
0.408206
0.408221
0.408236
0.408251
0.408266
0.408266
0.408281
0.408296
0.408312
0.408327
0.408327
0.408342
0.408357
0.408372
0.408388
0.408388
0.408403
0.408418
0.408433
0.408449
0.408449
0.408464
0.40848
0.408495
0.408511
0.408511
0.408526
0.408542
0.408557
0.408573
0.408573
0.408588
0.408604
0.40862
0.408635
0.408635
0.408651
0.408667
0.408683
0.408699
0.408699
0.408714
0.40873
0.408746
0.408762
0.408762
0.408778
0.408794
0.40881
0.408826
0.408826
0.408842
0.408858
0.408875
0.408891
0.408891
0.408907
0.408923
0.408939
0.408956
0.408956
0.408972
0.408988
0.409005
0.409021
0.409021
0.409038
0.409054
0.40907
0.409087
0.409087
0.409103
0.40912
0.409137
0.409153
0.409153
0.40917
0.409187
0.409203
0.40922
0.40922
0.409237
0.409254
0.40927
0.409287
0.409287
0.409304
0.409321
0.409338
0.409355
0.409355
0.409372
0.409389
0.409406
0.409423
0.409423
0.40944
0.409457
0.409475
0.409492
0.409492
0.409509
0.409526
0.409543
0.409561
0.409561
0.409578
0.409595
0.409613
0.40963
0.40963
0.409648
0.409665
0.409683
0.4097
0.4097
0.409718
0.409735
0.409753
0.409771
0.409771
0.409788
0.409806
0.409824
0.409842
0.409842
0.409859
0.409877
0.409895
0.409913
0.409913
0.409931
0.409949
0.409967
0.409985
0.409985
0.410003
0.410021
0.410039
0.410057
0.410057
0.410075
0.410093
0.410111
0.41013
0.41013
0.410148
0.410166
0.410184
0.410203
0.410203
0.410221
0.410239
0.410258
0.410276
0.410276
0.410295
0.410313
0.410332
0.41035
0.41035
0.410369
0.410388
0.410406
0.410425
0.410425
0.410444
0.410462
0.410481
0.4105
0.4105
0.410519
0.410538
0.410556
0.410575
0.410575
0.410594
0.410613
0.410632
0.410651
0.410651
0.41067
0.410689
0.410708
0.410728
0.410728
0.410747
0.410766
0.410785
0.410804
0.410804
0.410824
0.410843
0.410862
0.410882
0.410882
0.410901
0.41092
0.41094
0.410959
0.410959
0.410979
0.410998
0.411018
0.411038
0.411038
0.411057
0.411077
0.411096
0.411116
0.411116
0.411136
0.411156
0.411175
0.411195
0.411195
0.411215
0.411235
0.411255
0.411275
0.411275
0.411295
0.411315
0.411335
0.411355
0.411355
0.411375
0.411395
0.411415
0.411435
0.411435
0.411455
0.411476
0.411496
0.411516
0.411516
0.411536
0.411557
0.411577
0.411597
0.411597
0.411618
0.411638
0.411659
0.411679
0.411679
0.4117
0.41172
0.411741
0.411762
0.411762
0.411782
0.411803
0.411824
0.411844
0.411844
0.411865
0.411886
0.411907
0.411927
0.411927
0.411948
0.411969
0.41199
0.412011
0.412011
0.412032
0.412053
0.412074
0.412095
0.412095
0.412116
0.412137
0.412159
0.41218
0.41218
0.412201
0.412222
0.412243
0.412265
0.412265
0.412286
0.412307
0.412329
0.41235
0.41235
0.412372
0.412393
0.412415
0.412436
0.412436
0.412458
0.412479
0.412501
0.412523
0.412523
0.412544
0.412566
0.412588
0.412609
0.412609
0.412631
0.412653
0.412675
0.412697
0.412697
0.412719
0.41274
0.412762
0.412784
0.412784
0.412806
0.412828
0.412851
0.412873
0.412873
0.412895
0.412917
0.412939
0.412961
0.412961
0.412984
0.413006
0.413028
0.41305
0.41305
0.413073
0.413095
0.413118
0.41314
0.41314
0.413162
0.413185
0.413207
0.41323
0.41323
0.413253
0.413275
0.413298
0.41332
0.41332
0.413343
0.413366
0.413389
0.413411
0.413411
0.413434
0.413457
0.41348
0.413503
0.413503
0.413526
0.413549
0.413572
0.413595
0.413595
0.413618
0.413641
0.413664
0.413687
0.413687
0.41371
0.413733
0.413756
0.41378
0.41378
0.413803
0.413826
0.41385
0.413873
0.413873
0.413896
0.41392
0.413943
0.413967
0.413967
0.41399
0.414014
0.414037
0.414061
0.414061
0.414084
0.414108
0.414132
0.414155
0.414155
0.414179
0.414203
0.414227
0.41425
0.41425
0.414274
0.414298
0.414322
0.414346
0.414346
0.41437
0.414394
0.414418
0.414442
0.414442
0.414466
0.41449
0.414514
0.414538
0.414538
0.414562
0.414587
0.414611
0.414635
0.414635
0.414659
0.414684
0.414708
0.414732
0.414732
0.414757
0.414781
0.414806
0.41483
0.41483
0.414855
0.414879
0.414904
0.414928
0.414928
0.414953
0.414978
0.415002
0.415027
0.415027
0.415052
0.415077
0.415101
0.415126
0.415126
0.415151
0.415176
0.415201
0.415226
0.415226
0.415251
0.415276
0.415301
0.415326
0.415326
0.415351
0.415376
0.415401
0.415426
0.415426
0.415452
0.415477
0.415502
0.415527
0.415527
0.415553
0.415578
0.415603
0.415629
0.415629
0.415654
0.41568
0.415705
0.415731
0.415731
0.415756
0.415782
0.415807
0.415833
0.415833
0.415859
0.415884
0.41591
0.415936
0.415936
0.415962
0.415987
0.416013
0.416039
0.416039
0.416065
0.416091
0.416117
0.416143
0.416143
0.416169
0.416195
0.416221
0.416247
0.416247
0.416273
0.416299
0.416325
0.416352
0.416352
0.416378
0.416404
0.41643
0.416457
0.416457
0.416483
0.416509
0.416536
0.416562
0.416562
0.416589
0.416615
0.416642
0.416668
0.416668
0.416695
0.416721
0.416748
0.416775
0.416775
0.416801
0.416828
0.416855
0.416881
0.416881
0.416908
0.416935
0.416962
0.416989
0.416989
0.417016
0.417043
0.41707
0.417097
0.417097
0.417124
0.417151
0.417178
0.417205
0.417205
0.417232
0.417259
0.417286
0.417314
0.417314
0.417341
0.417368
0.417396
0.417423
0.417423
0.41745
0.417478
0.417505
0.417532
0.417532
0.41756
0.417587
0.417615
0.417643
0.417643
0.41767
0.417698
0.417725
0.417753
0.417753
0.417781
0.417809
0.417836
0.417864
0.417864
0.417892
0.41792
0.417948
0.417976
0.417976
0.418004
0.418031
0.418059
0.418088
0.418088
0.418116
0.418144
0.418172
0.4182
0.4182
0.418228
0.418256
0.418284
0.418313
0.418313
0.418341
0.418369
0.418398
0.418426
0.418426
0.418454
0.418483
0.418511
0.41854
0.41854
0.418568
0.418597
0.418625
0.418654
0.418654
0.418683
0.418711
0.41874
0.418769
0.418769
0.418797
0.418826
0.418855
0.418884
0.418884
0.418913
0.418941
0.41897
0.418999
0.418999
0.419028
0.419057
0.419086
0.419115
0.419115
0.419144
0.419174
0.419203
0.419232
0.419232
0.419261
0.41929
0.419319
0.419349
0.419349
0.419378
0.419407
0.419437
0.419466
0.419466
0.419496
0.419525
0.419554
0.419584
0.419584
0.419614
0.419643
0.419673
0.419702
0.419702
0.419732
0.419762
0.419791
0.419821
0.419821
0.419851
0.419881
0.41991
0.41994
0.41994
0.41997
0.42
0.42003
0.42006
0.42006
0.42009
0.42012
0.42015
0.42018
0.42018
0.42021
0.42024
0.420271
0.420301
0.420301
0.420331
0.420361
0.420391
0.420422
0.420422
0.420452
0.420482
0.420513
0.420543
0.420543
0.420574
0.420604
0.420635
0.420665
0.420665
0.420696
0.420726
0.420757
0.420788
0.420788
0.420818
0.420849
0.42088
0.420911
0.420911
0.420941
0.420972
0.421003
0.421034
0.421034
0.421065
0.421096
0.421127
0.421158
0.421158
0.421189
0.42122
0.421251
0.421282
0.421282
0.421313
0.421344
0.421375
0.421407
0.421407
0.421438
0.421469
0.4215
0.421532
0.421532
0.421563
0.421594
0.421626
0.421657
0.421657
0.421689
0.42172
0.421752
0.421783
0.421783
0.421815
0.421847
0.421878
0.42191
0.42191
0.421942
0.421973
0.422005
0.422037
0.422037
0.422069
0.422101
0.422132
0.422164
0.422164
0.422196
0.422228
0.42226
0.422292
0.422292
0.422324
0.422356
0.422388
0.422421
0.422421
0.422453
0.422485
0.422517
0.422549
0.422549
0.422582
0.422614
0.422646
0.422679
0.422679
0.422711
0.422744
0.422776
0.422808
0.422808
0.422841
0.422873
0.422906
0.422939
0.422939
0.422971
0.423004
0.423037
0.423069
0.423069
0.423102
0.423135
0.423168
0.4232
0.4232
0.423233
0.423266
0.423299
0.423332
0.423332
0.423365
0.423398
0.423431
0.423464
0.423464
0.423497
0.42353
0.423563
0.423596
0.423596
0.42363
0.423663
0.423696
0.423729
0.423729
0.423763
0.423796
0.423829
0.423863
0.423863
0.423896
0.42393
0.423963
0.423997
0.423997
0.42403
0.424064
0.424097
0.424131
0.424131
0.424164
0.424198
0.424232
0.424266
0.424266
0.424299
0.424333
0.424367
0.424401
0.424401
0.424435
0.424469
0.424502
0.424536
0.424536
0.42457
0.424604
0.424638
0.424673
0.424673
0.424707
0.424741
0.424775
0.424809
0.424809
0.424843
0.424878
0.424912
0.424946
0.424946
0.42498
0.425015
0.425049
0.425084
0.425084
0.425118
0.425153
0.425187
0.425222
0.425222
0.425256
0.425291
0.425325
0.42536
0.42536
0.425395
0.425429
0.425464
0.425499
0.425499
0.425534
0.425568
0.425603
0.425638
0.425638
0.425673
0.425708
0.425743
0.425778
0.425778
0.425813
0.425848
0.425883
0.425918
0.425918
0.425953
0.425989
0.426024
0.426059
0.426059
0.426094
0.426129
0.426165
0.4262
0.4262
0.426235
0.426271
0.426306
0.426342
0.426342
0.426377
0.426413
0.426448
0.426484
0.426484
0.426519
0.426555
0.426591
0.426626
0.426626
0.426662
0.426698
0.426733
0.426769
0.426769
0.426805
0.426841
0.426877
0.426913
0.426913
0.426949
0.426985
0.427021
0.427057
0.427057
0.427093
0.427129
0.427165
0.427201
0.427201
0.427237
0.427273
0.427309
0.427346
0.427346
0.427382
0.427418
0.427455
0.427491
0.427491
0.427527
0.427564
0.4276
0.427637
0.427637
0.427673
0.42771
0.427746
0.427783
0.427783
0.42782
0.427856
0.427893
0.42793
0.42793
0.427966
0.428003
0.42804
0.428077
0.428077
0.428113
0.42815
0.428187
0.428224
0.428224
0.428261
0.428298
0.428335
0.428372
0.428372
0.428409
0.428446
0.428484
0.428521
0.428521
0.428558
0.428595
0.428632
0.42867
0.42867
0.428707
0.428744
0.428782
0.428819
0.428819
0.428856
0.428894
0.428931
0.428969
0.428969
0.429006
0.429044
0.429082
0.429119
0.429119
0.429157
0.429194
0.429232
0.42927
0.42927
0.429308
0.429345
0.429383
0.429421
0.429421
0.429459
0.429497
0.429535
0.429573
0.429573
0.429611
0.429649
0.429687
0.429725
0.429725
0.429763
0.429801
0.429839
0.429878
0.429878
0.429916
0.429954
0.429992
0.430031
0.430031
0.430069
0.430107
0.430146
0.430184
0.430184
0.430223
0.430261
0.430299
0.430338
0.430338
0.430377
0.430415
0.430454
0.430492
0.430492
0.430531
0.43057
0.430609
0.430647
0.430647
0.430686
0.430725
0.430764
0.430803
0.430803
0.430842
0.430881
0.430919
0.430958
0.430958
0.430997
0.431037
0.431076
0.431115
0.431115
0.431154
0.431193
0.431232
0.431271
0.431271
0.431311
0.43135
0.431389
0.431429
0.431429
0.431468
0.431507
0.431547
0.431586
0.431586
0.431626
0.431665
0.431705
0.431744
0.431744
0.431784
0.431824
0.431863
0.431903
0.431903
0.431943
0.431982
0.432022
0.432062
0.432062
0.432102
0.432142
0.432181
0.432221
0.432221
0.432261
0.432301
0.432341
0.432381
0.432381
0.432421
0.432461
0.432501
0.432542
0.432542
0.432582
0.432622
0.432662
0.432702
0.432702
0.432743
0.432783
0.432823
0.432864
0.432864
0.432904
0.432945
0.432985
0.433025
0.433025
0.433066
0.433107
0.433147
0.433188
0.433188
0.433228
0.433269
0.43331
0.43335
0.43335
0.433391
0.433432
0.433473
0.433513
0.433513
0.433554
0.433595
0.433636
0.433677
0.433677
0.433718
0.433759
0.4338
0.433841
0.433841
0.433882
0.433923
0.433964
0.434006
0.434006
0.434047
0.434088
0.434129
0.434171
0.434171
0.434212
0.434253
0.434295
0.434336
0.434336
0.434377
0.434419
0.43446
0.434502
0.434502
0.434543
0.434585
0.434627
0.434668
0.434668
0.43471
0.434752
0.434793
0.434835
0.434835
0.434877
0.434919
0.43496
0.435002
0.435002
0.435044
0.435086
0.435128
0.43517
0.43517
0.435212
0.435254
0.435296
0.435338
0.435338
0.43538
0.435422
0.435465
0.435507
0.435507
0.435549
0.435591
0.435634
0.435676
0.435676
0.435718
0.435761
0.435803
0.435845
0.435845
0.435888
0.43593
0.435973
0.436015
0.436015
0.436058
0.436101
0.436143
0.436186
0.436186
0.436229
0.436271
0.436314
0.436357
0.436357
0.4364
0.436442
0.436485
0.436528
0.436528
0.436571
0.436614
0.436657
0.4367
0.4367
0.436743
0.436786
0.436829
0.436872
0.436872
0.436915
0.436959
0.437002
0.437045
0.437045
0.437088
0.437132
0.437175
0.437218
0.437218
0.437262
0.437305
0.437349
0.437392
0.437392
0.437436
0.437479
0.437523
0.437566
0.437566
0.43761
0.437653
0.437697
0.437741
0.437741
0.437784
0.437828
0.437872
0.437916
0.437916
0.43796
0.438004
0.438047
0.438091
0.438091
0.438135
0.438179
0.438223
0.438267
0.438267
0.438311
0.438355
0.4384
0.438444
0.438444
0.438488
0.438532
0.438576
0.438621
0.438621
0.438665
0.438709
0.438754
0.438798
0.438798
0.438842
0.438887
0.438931
0.438976
0.438976
0.43902
0.439065
0.439109
0.439154
0.439154
0.439199
0.439243
0.439288
0.439333
0.439333
0.439378
0.439422
0.439467
0.439512
0.439512
0.439557
0.439602
0.439647
0.439692
0.439692
0.439737
0.439782
0.439827
0.439872
0.439872
0.439917
0.439962
0.440007
0.440052
0.440052
0.440098
0.440143
0.440188
0.440233
0.440233
0.440279
0.440324
0.440369
0.440415
0.440415
0.44046
0.440506
0.440551
0.440597
0.440597
0.440642
0.440688
0.440734
0.440779
0.440779
0.440825
0.440871
0.440916
0.440962
0.440962
0.441008
0.441054
0.4411
0.441145
0.441145
0.441191
0.441237
0.441283
0.441329
0.441329
0.441375
0.441421
0.441467
0.441514
0.441514
0.44156
0.441606
0.441652
0.441698
0.441698
0.441744
0.441791
0.441837
0.441883
0.441883
0.44193
0.441976
0.442023
0.442069
0.442069
0.442116
0.442162
0.442209
0.442255
0.442255
0.442302
0.442348
0.442395
0.442442
0.442442
0.442488
0.442535
0.442582
0.442629
0.442629
0.442676
0.442722
0.442769
0.442816
0.442816
0.442863
0.44291
0.442957
0.443004
0.443004
0.443051
0.443098
0.443145
0.443193
0.443193
0.44324
0.443287
0.443334
0.443381
0.443381
0.443429
0.443476
0.443523
0.443571
0.443571
0.443618
0.443666
0.443713
0.44376
0.44376
0.443808
0.443856
0.443903
0.443951
0.443951
0.443998
0.444046
0.444094
0.444141
0.444141
0.444189
0.444237
0.444285
0.444333
0.444333
0.44438
0.444428
0.444476
0.444524
0.444524
0.444572
0.44462
0.444668
0.444716
0.444716
0.444764
0.444813
0.444861
0.444909
0.444909
0.444957
0.445005
0.445054
0.445102
0.445102
0.44515
0.445199
0.445247
0.445295
0.445295
0.445344
0.445392
0.445441
0.445489
0.445489
0.445538
0.445586
0.445635
0.445684
0.445684
0.445732
0.445781
0.44583
0.445879
0.445879
0.445927
0.445976
0.446025
0.446074
0.446074
0.446123
0.446172
0.446221
0.44627
0.44627
0.446319
0.446368
0.446417
0.446466
0.446466
0.446515
0.446564
0.446613
0.446663
0.446663
0.446712
0.446761
0.44681
0.44686
0.44686
0.446909
0.446958
0.447008
0.447057
0.447057
0.447107
0.447156
0.447206
0.447255
0.447255
0.447305
0.447355
0.447404
0.447454
0.447454
0.447504
0.447553
0.447603
0.447653
0.447653
0.447703
0.447753
0.447803
0.447852
0.447852
0.447902
0.447952
0.448002
0.448052
0.448052
0.448102
0.448153
0.448203
0.448253
0.448253
0.448303
0.448353
0.448403
0.448454
0.448454
0.448504
0.448554
0.448605
0.448655
0.448655
0.448705
0.448756
0.448806
0.448857
0.448857
0.448907
0.448958
0.449008
0.449059
0.449059
0.44911
0.44916
0.449211
0.449262
0.449262
0.449312
0.449363
0.449414
0.449465
0.449465
0.449516
0.449567
0.449618
0.449668
0.449668
0.449719
0.44977
0.449821
0.449873
0.449873
0.449924
0.449975
0.450026
0.450077
0.450077
0.450128
0.45018
0.450231
0.450282
0.450282
0.450333
0.450385
0.450436
0.450488
0.450488
0.450539
0.450591
0.450642
0.450694
0.450694
0.450745
0.450797
0.450848
0.4509
0.4509
0.450952
0.451003
0.451055
0.451107
0.451107
0.451159
0.45121
0.451262
0.451314
0.451314
0.451366
0.451418
0.45147
0.451522
0.451522
0.451574
0.451626
0.451678
0.45173
0.45173
0.451782
0.451835
0.451887
0.451939
0.451939
0.451991
0.452043
0.452096
0.452148
0.452148
0.4522
0.452253
0.452305
0.452358
0.452358
0.45241
0.452463
0.452515
0.452568
0.452568
0.45262
0.452673
0.452726
0.452778
0.452778
0.452831
0.452884
0.452937
0.45299
0.45299
0.453042
0.453095
0.453148
0.453201
0.453201
0.453254
0.453307
0.45336
0.453413
0.453413
0.453466
0.453519
0.453572
0.453625
0.453625
0.453679
0.453732
0.453785
0.453838
0.453838
0.453892
0.453945
0.453998
0.454052
0.454052
0.454105
0.454159
0.454212
0.454265
0.454265
0.454319
0.454373
0.454426
0.45448
0.45448
0.454533
0.454587
0.454641
0.454695
0.454695
0.454748
0.454802
0.454856
0.45491
0.45491
0.454964
0.455017
0.455071
0.455125
0.455125
0.455179
0.455233
0.455287
0.455342
0.455342
0.455396
0.45545
0.455504
0.455558
0.455558
0.455612
0.455667
0.455721
0.455775
0.455775
0.45583
0.455884
0.455938
0.455993
0.455993
0.456047
0.456102
0.456156
0.456211
0.456211
0.456265
0.45632
0.456375
0.456429
0.456429
0.456484
0.456539
0.456593
0.456648
0.456648
0.456703
0.456758
0.456813
0.456868
0.456868
0.456922
0.456977
0.457032
0.457087
0.457087
0.457142
0.457197
0.457253
0.457308
0.457308
0.457363
0.457418
0.457473
0.457529
0.457529
0.457584
0.457639
0.457694
0.45775
0.45775
0.457805
0.457861
0.457916
0.457971
0.457971
0.458027
0.458083
0.458138
0.458194
0.458194
0.458249
0.458305
0.458361
0.458416
0.458416
0.458472
0.458528
0.458584
0.458639
0.458639
0.458695
0.458751
0.458807
0.458863
0.458863
0.458919
0.458975
0.459031
0.459087
0.459087
0.459143
0.459199
0.459255
0.459312
0.459312
0.459368
0.459424
0.45948
0.459537
0.459537
0.459593
0.459649
0.459706
0.459762
0.459762
0.459818
0.459875
0.459931
0.459988
0.459988
0.460044
0.460101
0.460158
0.460214
0.460214
0.460271
0.460328
0.460384
0.460441
0.460441
0.460498
0.460555
0.460612
0.460668
0.460668
0.460725
0.460782
0.460839
0.460896
0.460896
0.460953
0.46101
0.461067
0.461124
0.461124
0.461182
0.461239
0.461296
0.461353
0.461353
0.46141
0.461468
0.461525
0.461582
0.461582
0.46164
0.461697
0.461755
0.461812
0.461812
0.461869
0.461927
0.461985
0.462042
0.462042
0.4621
0.462157
0.462215
0.462273
0.462273
0.46233
0.462388
0.462446
0.462504
0.462504
0.462562
0.462619
0.462677
0.462735
0.462735
0.462793
0.462851
0.462909
0.462967
0.462967
0.463025
0.463083
0.463141
0.4632
0.4632
0.463258
0.463316
0.463374
0.463433
0.463433
0.463491
0.463549
0.463608
0.463666
0.463666
0.463724
0.463783
0.463841
0.4639
0.4639
0.463958
0.464017
0.464075
0.464134
0.464134
0.464193
0.464251
0.46431
0.464369
0.464369
0.464428
0.464486
0.464545
0.464604
0.464604
0.464663
0.464722
0.464781
0.46484
0.46484
0.464899
0.464958
0.465017
0.465076
0.465076
0.465135
0.465194
0.465253
0.465313
0.465313
0.465372
0.465431
0.46549
0.46555
0.46555
0.465609
0.465668
0.465728
0.465787
0.465787
0.465847
0.465906
0.465966
0.466025
0.466025
0.466085
0.466145
0.466204
0.466264
0.466264
0.466324
0.466383
0.466443
0.466503
0.466503
0.466563
0.466623
0.466682
0.466742
0.466742
0.466802
0.466862
0.466922
0.466982
0.466982
0.467042
0.467102
0.467163
0.467223
0.467223
0.467283
0.467343
0.467403
0.467464
0.467464
0.467524
0.467584
0.467645
0.467705
0.467705
0.467765
0.467826
0.467886
0.467947
0.467947
0.468007
0.468068
0.468128
0.468189
0.468189
0.46825
0.46831
0.468371
0.468432
0.468432
0.468493
0.468553
0.468614
0.468675
0.468675
0.468736
0.468797
0.468858
0.468919
0.468919
0.46898
0.469041
0.469102
0.469163
0.469163
0.469224
0.469285
0.469346
0.469407
0.469407
0.469469
0.46953
0.469591
0.469653
0.469653
0.469714
0.469775
0.469837
0.469898
0.469898
0.46996
0.470021
0.470083
0.470144
0.470144
0.470206
0.470267
0.470329
0.470391
0.470391
0.470452
0.470514
0.470576
0.470638
0.470638
0.470699
0.470761
0.470823
0.470885
0.470885
0.470947
0.471009
0.471071
0.471133
0.471133
0.471195
0.471257
0.471319
0.471381
0.471381
0.471444
0.471506
0.471568
0.47163
0.47163
0.471692
0.471755
0.471817
0.47188
0.47188
0.471942
0.472004
0.472067
0.472129
0.472129
0.472192
0.472254
0.472317
0.47238
0.47238
0.472442
0.472505
0.472568
0.47263
0.47263
0.472693
0.472756
0.472819
0.472882
0.472882
0.472944
0.473007
0.47307
0.473133
0.473133
0.473196
0.473259
0.473322
0.473385
0.473385
0.473449
0.473512
0.473575
0.473638
0.473638
0.473701
0.473765
0.473828
0.473891
0.473891
0.473954
0.474018
0.474081
0.474145
0.474145
0.474208
0.474272
0.474335
0.474399
0.474399
0.474462
0.474526
0.47459
0.474653
0.474653
0.474717
0.474781
0.474844
0.474908
0.474908
0.474972
0.475036
0.4751
0.475164
0.475164
0.475228
0.475292
0.475356
0.47542
0.47542
0.475484
0.475548
0.475612
0.475676
0.475676
0.47574
0.475804
0.475869
0.475933
0.475933
0.475997
0.476062
0.476126
0.47619
0.47619
0.476255
0.476319
0.476384
0.476448
0.476448
0.476513
0.476577
0.476642
0.476706
0.476706
0.476771
0.476836
0.4769
0.476965
0.476965
0.47703
0.477095
0.47716
0.477224
0.477224
0.477289
0.477354
0.477419
0.477484
0.477484
0.477549
0.477614
0.477679
0.477744
0.477744
0.477809
0.477875
0.47794
0.478005
0.478005
0.47807
0.478136
0.478201
0.478266
0.478266
0.478331
0.478397
0.478462
0.478528
0.478528
0.478593
0.478659
0.478724
0.47879
0.47879
0.478855
0.478921
0.478987
0.479052
0.479052
0.479118
0.479184
0.47925
0.479315
0.479315
0.479381
0.479447
0.479513
0.479579
0.479579
0.479645
0.479711
0.479777
0.479843
0.479843
0.479909
0.479975
0.480041
0.480107
0.480107
0.480174
0.48024
0.480306
0.480372
0.480372
0.480439
0.480505
0.480571
0.480638
0.480638
0.480704
0.480771
0.480837
0.480904
0.480904
0.48097
0.481037
0.481103
0.48117
0.48117
0.481237
0.481303
0.48137
0.481437
0.481437
0.481504
0.48157
0.481637
0.481704
0.481704
0.481771
0.481838
0.481905
0.481972
0.481972
0.482039
0.482106
0.482173
0.48224
0.48224
0.482307
0.482375
0.482442
0.482509
0.482509
0.482576
0.482643
0.482711
0.482778
0.482778
0.482846
0.482913
0.48298
0.483048
0.483048
0.483115
0.483183
0.48325
0.483318
0.483318
0.483386
0.483453
0.483521
0.483589
0.483589
0.483656
0.483724
0.483792
0.48386
0.48386
0.483928
0.483996
0.484063
0.484131
0.484131
0.484199
0.484267
0.484335
0.484403
0.484403
0.484472
0.48454
0.484608
0.484676
0.484676
0.484744
0.484813
0.484881
0.484949
0.484949
0.485017
0.485086
0.485154
0.485223
0.485223
0.485291
0.48536
0.485428
0.485497
0.485497
0.485565
0.485634
0.485702
0.485771
0.485771
0.48584
0.485908
0.485977
0.486046
0.486046
0.486115
0.486184
0.486253
0.486321
0.486321
0.48639
0.486459
0.486528
0.486597
0.486597
0.486666
0.486735
0.486805
0.486874
0.486874
0.486943
0.487012
0.487081
0.487151
0.487151
0.48722
0.487289
0.487359
0.487428
0.487428
0.487497
0.487567
0.487636
0.487706
0.487706
0.487775
0.487845
0.487914
0.487984
0.487984
0.488054
0.488123
0.488193
0.488263
0.488263
0.488333
0.488402
0.488472
0.488542
0.488542
0.488612
0.488682
0.488752
0.488822
0.488822
0.488892
0.488962
0.489032
0.489102
0.489102
0.489172
0.489242
0.489312
0.489383
0.489383
0.489453
0.489523
0.489594
0.489664
0.489664
0.489734
0.489805
0.489875
0.489946
0.489946
0.490016
0.490087
0.490157
0.490228
0.490228
0.490298
0.490369
0.49044
0.49051
0.49051
0.490581
0.490652
0.490723
0.490793
0.490793
0.490864
0.490935
0.491006
0.491077
0.491077
0.491148
0.491219
0.49129
0.491361
0.491361
0.491432
0.491503
0.491574
0.491646
0.491646
0.491717
0.491788
0.491859
0.491931
0.491931
0.492002
0.492073
0.492145
0.492216
0.492216
0.492288
0.492359
0.492431
0.492502
0.492502
0.492574
0.492645
0.492717
0.492789
0.492789
0.49286
0.492932
0.493004
0.493075
0.493075
0.493147
0.493219
0.493291
0.493363
0.493363
0.493435
0.493507
0.493579
0.493651
0.493651
0.493723
0.493795
0.493867
0.493939
0.493939
0.494011
0.494084
0.494156
0.494228
0.494228
0.4943
0.494373
0.494445
0.494517
0.494517
0.49459
0.494662
0.494735
0.494807
0.494807
0.49488
0.494952
0.495025
0.495098
0.495098
0.49517
0.495243
0.495316
0.495388
0.495388
0.495461
0.495534
0.495607
0.49568
0.49568
0.495753
0.495826
0.495899
0.495972
0.495972
0.496045
0.496118
0.496191
0.496264
0.496264
0.496337
0.49641
0.496483
0.496557
0.496557
0.49663
0.496703
0.496776
0.49685
0.49685
0.496923
0.496997
0.49707
0.497144
0.497144
0.497217
0.497291
0.497364
0.497438
0.497438
0.497511
0.497585
0.497659
0.497732
0.497732
0.497806
0.49788
0.497954
0.498028
0.498028
0.498101
0.498175
0.498249
0.498323
0.498323
0.498397
0.498471
0.498545
0.498619
0.498619
0.498694
0.498768
0.498842
0.498916
0.498916
0.49899
0.499065
0.499139
0.499213
0.499213
0.499288
0.499362
0.499436
0.499511
0.499511
0.499585
0.49966
0.499734
0.499809
0.499809
0.499883
0.499958
0.500033
0.500107
0.500107
0.500182
0.500257
0.500332
0.500406
0.500406
0.500481
0.500556
0.500631
0.500706
0.500706
0.500781
0.500856
0.500931
0.501006
0.501006
0.501081
0.501156
0.501231
0.501307
0.501307
0.501382
0.501457
0.501532
0.501608
0.501608
0.501683
0.501758
0.501834
0.501909
0.501909
0.501985
0.50206
0.502136
0.502211
0.502211
0.502287
0.502362
0.502438
0.502514
0.502514
0.502589
0.502665
0.502741
0.502817
0.502817
0.502892
0.502968
0.503044
0.50312
0.50312
0.503196
0.503272
0.503348
0.503424
0.503424
0.5035
0.503576
0.503652
0.503728
0.503728
0.503805
0.503881
0.503957
0.504033
0.504033
0.50411
0.504186
0.504262
0.504339
0.504339
0.504415
0.504492
0.504568
0.504645
0.504645
0.504721
0.504798
0.504874
0.504951
0.504951
0.505028
0.505104
0.505181
0.505258
0.505258
0.505335
0.505412
0.505488
0.505565
0.505565
0.505642
0.505719
0.505796
0.505873
0.505873
0.50595
0.506027
0.506104
0.506181
0.506181
0.506259
0.506336
0.506413
0.50649
0.50649
0.506568
0.506645
0.506722
0.5068
0.5068