<?xml version="1.0"?>
<VTKFile type="UnstructuredGrid" version="0.1" byte_order="LittleEndian">
<UnstructuredGrid>
<Piece NumberOfPoints="5000" NumberOfCells="4000">
<PointData Scalars="Reaction 0">
<DataArray type="Float32" Name="Reaction 0" format="ascii">
0.456395
0.456395
0.456396
0.456396
0.456396
0.456396
0.456396
0.456396
0.456396
0.456396
0.456396
0.456397
0.456397
0.456397
0.456398
0.456398
0.456398
0.456398
0.456399
0.456399
0.456399
0.4564
0.4564
0.456401
0.456402
0.456402
0.456402
0.456403
0.456403
0.456404
0.456404
0.456405
0.456406
0.456407
0.456407
0.456407
0.456408
0.456409
0.45641
0.456411
0.456411
0.456412
0.456413
0.456414
0.456415
0.456415
0.456416
0.456417
0.456419
0.45642
0.45642
0.456421
0.456422
0.456423
0.456425
0.456425
0.456426
0.456428
0.456429
0.45643
0.45643
0.456432
0.456433
0.456435
0.456436
0.456436
0.456438
0.45644
0.456441
0.456443
0.456443
0.456445
0.456446
0.456448
0.45645
0.45645
0.456452
0.456454
0.456456
0.456458
0.456458
0.456459
0.456461
0.456463
0.456466
0.456466
0.456468
0.45647
0.456472
0.456474
0.456474
0.456476
0.456478
0.456481
0.456483
0.456483
0.456485
0.456488
0.45649
0.456492
0.456492
0.456495
0.456497
0.4565
0.456502
0.456502
0.456505
0.456508
0.45651
0.456513
0.456513
0.456515
0.456518
0.456521
0.456524
0.456524
0.456526
0.456529
0.456532
0.456535
0.456535
0.456538
0.456541
0.456544
0.456547
0.456547
0.45655
0.456553
0.456556
0.456559
0.456559
0.456562
0.456566
0.456569
0.456572
0.456572
0.456575
0.456579
0.456582
0.456585
0.456585
0.456589
0.456592
0.456596
0.456599
0.456599
0.456603
0.456606
0.45661
0.456614
0.456614
0.456617
0.456621
0.456625
0.456628
0.456628
0.456632
0.456636
0.45664
0.456644
0.456644
0.456648
0.456651
0.456655
0.456659
0.456659
0.456663
0.456667
0.456672
0.456676
0.456676
0.45668
0.456684
0.456688
0.456692
0.456692
0.456697
0.456701
0.456705
0.45671
0.45671
0.456714
0.456718
0.456723
0.456727
0.456727
0.456732
0.456736
0.456741
0.456745
0.456745
0.45675
0.456755
0.456759
0.456764
0.456764
0.456769
0.456774
0.456778
0.456783
0.456783
0.456788
0.456793
0.456798
0.456803
0.456803
0.456808
0.456813
0.456818
0.456823
0.456823
0.456828
0.456833
0.456838
0.456844
0.456844
0.456849
0.456854
0.456859
0.456865
0.456865
0.45687
0.456875
0.456881
0.456886
0.456886
0.456892
0.456897
0.456903
0.456908
0.456908
0.456914
0.45692
0.456925
0.456931
0.456931
0.456937
0.456942
0.456948
0.456954
0.456954
0.45696
0.456966
0.456972
0.456977
0.456977
0.456983
0.456989
0.456995
0.457001
0.457001
0.457008
0.457014
0.45702
0.457026
0.457026
0.457032
0.457038
0.457045
0.457051
0.457051
0.457057
0.457064
0.45707
0.457076
0.457076
0.457083
0.457089
0.457096
0.457102
0.457102
0.457109
0.457116
0.457122
0.457129
0.457129
0.457135
0.457142
0.457149
0.457156
0.457156
0.457163
0.457169
0.457176
0.457183
0.457183
0.45719
0.457197
0.457204
0.457211
0.457211
0.457218
0.457225
0.457232
0.457239
0.457239
0.457247
0.457254
0.457261
0.457268
0.457268
0.457276
0.457283
0.45729
0.457298
0.457298
0.457305
0.457312
0.45732
0.457327
0.457327
0.457335
0.457343
0.45735
0.457358
0.457358
0.457365
0.457373
0.457381
0.457389
0.457389
0.457396
0.457404
0.457412
0.45742
0.45742
0.457428
0.457436
0.457444
0.457452
0.457452
0.45746
0.457468
0.457476
0.457484
0.457484
0.457492
0.4575
0.457508
0.457517
0.457517
0.457525
0.457533
0.457541
0.45755
0.45755
0.457558
0.457567
0.457575
0.457584
0.457584
0.457592
0.457601
0.457609
0.457618
0.457618
0.457626
0.457635
0.457644
0.457652
0.457652
0.457661
0.45767
0.457679
0.457688
0.457688
0.457696
0.457705
0.457714
0.457723
0.457723
0.457732
0.457741
0.45775
0.457759
0.457759
0.457769
0.457778
0.457787
0.457796
0.457796
0.457805
0.457815
0.457824
0.457833
0.457833
0.457843
0.457852
0.457861
0.457871
0.457871
0.45788
0.45789
0.457899
0.457909
0.457909
0.457918
0.457928
0.457938
0.457947
0.457947
0.457957
0.457967
0.457977
0.457987
0.457987
0.457996
0.458006
0.458016
0.458026
0.458026
0.458036
0.458046
0.458056
0.458066
0.458066
0.458076
0.458086
0.458096
0.458107
0.458107
0.458117
0.458127
0.458137
0.458148
0.458148
0.458158
0.458168
0.458179
0.458189
0.458189
0.4582
0.45821
0.458221
0.458231
0.458231
0.458242
0.458252
0.458263
0.458274
0.458274
0.458284
0.458295
0.458306
0.458317
0.458317
0.458327
0.458338
0.458349
0.45836
0.45836
0.458371
0.458382
0.458393
0.458404
0.458404
0.458415
0.458426
0.458437
0.458448
0.458448
0.45846
0.458471
0.458482
0.458493
0.458493
0.458505
0.458516
0.458527
0.458539
0.458539
0.45855
0.458562
0.458573
0.458585
0.458585
0.458596
0.458608
0.458619
0.458631
0.458631
0.458643
0.458654
0.458666
0.458678
0.458678
0.45869
0.458701
0.458713
0.458725
0.458725
0.458737
0.458749
0.458761
0.458773
0.458773
0.458785
0.458797
0.458809
0.458821
0.458821
0.458833
0.458846
0.458858
0.45887
0.45887
0.458882
0.458895
0.458907
0.458919
0.458919
0.458932
0.458944
0.458957
0.458969
0.458969
0.458982
0.458994
0.459007
0.459019
0.459019
0.459032
0.459045
0.459057
0.45907
0.45907
0.459083
0.459096
0.459109
0.459121
0.459121
0.459134
0.459147
0.45916
0.459173
0.459173
0.459186
0.459199
0.459212
0.459225
0.459225
0.459239
0.459252
0.459265
0.459278
0.459278
0.459291
0.459305
0.459318
0.459331
0.459331
0.459345
0.459358
0.459372
0.459385
0.459385
0.459399
0.459412
0.459426
0.459439
0.459439
0.459453
0.459466
0.45948
0.459494
0.459494
0.459508
0.459521
0.459535
0.459549
0.459549
0.459563
0.459577
0.459591
0.459605
0.459605
0.459619
0.459633
0.459647
0.459661
0.459661
0.459675
0.459689
0.459703
0.459717
0.459717
0.459732
0.459746
0.45976
0.459774
0.459774
0.459789
0.459803
0.459818
0.459832
0.459832
0.459847
0.459861
0.459876
0.45989
0.45989
0.459905
0.459919
0.459934
0.459949
0.459949
0.459963
0.459978
0.459993
0.460008
0.460008
0.460023
0.460038
0.460052
0.460067
0.460067
0.460082
0.460097
0.460112
0.460127
0.460127
0.460142
0.460158
0.460173
0.460188
0.460188
0.460203
0.460218
0.460234
0.460249
0.460249
0.460264
0.46028
0.460295
0.46031
0.46031
0.460326
0.460341
0.460357
0.460372
0.460372
0.460388
0.460404
0.460419
0.460435
0.460435
0.460451
0.460466
0.460482
0.460498
0.460498
0.460514
0.46053
0.460545
0.460561
0.460561
0.460577
0.460593
0.460609
0.460625
0.460625
0.460641
0.460657
0.460674
0.46069
0.46069
0.460706
0.460722
0.460738
0.460755
0.460755
0.460771
0.460787
0.460804
0.46082
0.46082
0.460837
0.460853
0.460869
0.460886
0.460886
0.460903
0.460919
0.460936
0.460952
0.460952
0.460969
0.460986
0.461003
0.461019
0.461019
0.461036
0.461053
0.46107
0.461087
0.461087
0.461104
0.461121
0.461138
0.461155
0.461155
0.461172
0.461189
0.461206
0.461223
0.461223
0.46124
0.461257
0.461274
0.461292
0.461292
0.461309
0.461326
0.461344
0.461361
0.461361
0.461378
0.461396
0.461413
0.461431
0.461431
0.461448
0.461466
0.461484
0.461501
0.461501
0.461519
0.461537
0.461554
0.461572
0.461572
0.46159
0.461608
0.461625
0.461643
0.461643
0.461661
0.461679
0.461697
0.461715
0.461715
0.461733
0.461751
0.461769
0.461787
0.461787
0.461806
0.461824
0.461842
0.46186
0.46186
0.461878
0.461897
0.461915
0.461933
0.461933
0.461952
0.46197
0.461989
0.462007
0.462007
0.462026
0.462044
0.462063
0.462081
0.462081
0.4621
0.462119
0.462138
0.462156
0.462156
0.462175
0.462194
0.462213
0.462231
0.462231
0.46225
0.462269
0.462288
0.462307
0.462307
0.462326
0.462345
0.462364
0.462383
0.462383
0.462403
0.462422
0.462441
0.46246
0.46246
0.462479
0.462499
0.462518
0.462537
0.462537
0.462557
0.462576
0.462596
0.462615
0.462615
0.462635
0.462654
0.462674
0.462693
0.462693
0.462713
0.462732
0.462752
0.462772
0.462772
0.462792
0.462811
0.462831
0.462851
0.462851
0.462871
0.462891
0.462911
0.462931
0.462931
0.462951
0.462971
0.462991
0.463011
0.463011
0.463031
0.463051
0.463071
0.463092
0.463092
0.463112
0.463132
0.463152
0.463173
0.463173
0.463193
0.463213
0.463234
0.463254
0.463254
0.463275
0.463295
0.463316
0.463336
0.463336
0.463357
0.463378
0.463398
0.463419
0.463419
0.46344
0.463461
0.463481
0.463502
0.463502
0.463523
0.463544
0.463565
0.463586
0.463586
0.463607
0.463628
0.463649
0.46367
0.46367
0.463691
0.463712
0.463733
0.463754
0.463754
0.463776
0.463797
0.463818
0.463839
0.463839
0.463861
0.463882
0.463904
0.463925
0.463925
0.463947
0.463968
0.46399
0.464011
0.464011
0.464033
0.464054
0.464076
0.464098
0.464098
0.464119
0.464141
0.464163
0.464185
0.464185
0.464207
0.464228
0.46425
0.464272
0.464272
0.464294
0.464316
0.464338
0.46436
0.46436
0.464382
0.464405
0.464427
0.464449
0.464449
0.464471
0.464493
0.464516
0.464538
0.464538
0.46456
0.464583
0.464605
0.464627
0.464627
0.46465
0.464672
0.464695
0.464717
0.464717
0.46474
0.464763
0.464785
0.464808
0.464808
0.464831
0.464853
0.464876
0.464899
0.464899
0.464922
0.464945
0.464968
0.464991
0.464991
0.465013
0.465036
0.465059
0.465083
0.465083
0.465106
0.465129
0.465152
0.465175
0.465175
0.465198
0.465221
0.465245
0.465268
0.465268
0.465291
0.465315
0.465338
0.465361
0.465361
0.465385
0.465408
0.465432
0.465455
0.465455
0.465479
0.465503
0.465526
0.46555
0.46555
0.465574
0.465597
0.465621
0.465645
0.465645
0.465669
0.465693
0.465716
0.46574
0.46574
0.465764
0.465788
0.465812
0.465836
0.465836
0.46586
0.465885
0.465909
0.465933
0.465933
0.465957
0.465981
0.466005
0.46603
0.46603
0.466054
0.466078
0.466103
0.466127
0.466127
0.466152
0.466176
0.466201
0.466225
0.466225
0.46625
0.466274
0.466299
0.466324
0.466324
0.466348
0.466373
0.466398
0.466423
0.466423
0.466447
0.466472
0.466497
0.466522
0.466522
0.466547
0.466572
0.466597
0.466622
0.466622
0.466647
0.466672
0.466697
0.466722
0.466722
0.466748
0.466773
0.466798
0.466823
0.466823
0.466849
0.466874
0.466899
0.466925
0.466925
0.46695
0.466976
0.467001
0.467027
0.467027
0.467052
0.467078
0.467103
0.467129
0.467129
0.467155
0.46718
0.467206
0.467232
0.467232
0.467258
0.467284
0.467309
0.467335
0.467335
0.467361
0.467387
0.467413
0.467439
0.467439
0.467465
0.467491
0.467518
0.467544
0.467544
0.46757
0.467596
0.467622
0.467649
0.467649
0.467675
0.467701
0.467728
0.467754
0.467754
0.46778
0.467807
0.467833
0.46786
0.46786
0.467887
0.467913
0.46794
0.467966
0.467966
0.467993
0.46802
0.468046
0.468073
0.468073
0.4681
0.468127
0.468154
0.468181
0.468181
0.468208
0.468235
0.468262
0.468289
0.468289
0.468316
0.468343
0.46837
0.468397
0.468397
0.468424
0.468451
0.468479
0.468506
0.468506
0.468533
0.46856
0.468588
0.468615
0.468615
0.468643
0.46867
0.468698
0.468725
0.468725
0.468753
0.46878
0.468808
0.468836
0.468836
0.468863
0.468891
0.468919
0.468946
0.468946
0.468974
0.469002
0.46903
0.469058
0.469058
0.469086
0.469114
0.469142
0.46917
0.46917
0.469198
0.469226
0.469254
0.469282
0.469282
0.46931
0.469339
0.469367
0.469395
0.469395
0.469423
0.469452
0.46948
0.469508
0.469508
0.469537
0.469565
0.469594
0.469622
0.469622
0.469651
0.469679
0.469708
0.469737
0.469737
0.469765
0.469794
0.469823
0.469852
0.469852
0.46988
0.469909
0.469938
0.469967
0.469967
0.469996
0.470025
0.470054
0.470083
0.470083
0.470112
0.470141
0.47017
0.470199
0.470199
0.470229
0.470258
0.470287
0.470316
0.470316
0.470346
0.470375
0.470404
0.470434
0.470434
0.470463
0.470493
0.470522
0.470552
0.470552
0.470581
0.470611
0.47064
0.47067
0.47067
0.4707
0.470729
0.470759
0.470789
0.470789
0.470819
0.470849
0.470878
0.470908
0.470908
0.470938
0.470968
0.470998
0.471028
0.471028
0.471058
0.471088
0.471118
0.471149
0.471149
0.471179
0.471209
0.471239
0.47127
0.47127
0.4713
0.47133
0.471361
0.471391
0.471391
0.471421
0.471452
0.471482
0.471513
0.471513
0.471543
0.471574
0.471605
0.471635
0.471635
0.471666
0.471697
0.471727
0.471758
0.471758
0.471789
0.47182
0.471851
0.471882
0.471882
0.471913
0.471944
0.471975
0.472006
0.472006
0.472037
0.472068
0.472099
0.47213
0.47213
0.472161
0.472192
0.472224
0.472255
0.472255
0.472286
0.472318
0.472349
0.47238
0.47238
0.472412
0.472443
0.472475
0.472506
0.472506
0.472538
0.47257
0.472601
0.472633
0.472633
0.472665
0.472696
0.472728
0.47276
0.47276
0.472792
0.472823
0.472855
0.472887
0.472887
0.472919
0.472951
0.472983
0.473015
0.473015
0.473047
0.473079
0.473112
0.473144
0.473144
0.473176
0.473208
0.47324
0.473273
0.473273
0.473305
0.473337
0.47337
0.473402
0.473402
0.473435
0.473467
0.4735
0.473532
0.473532
0.473565
0.473597
0.47363
0.473663
0.473663
0.473695
0.473728
0.473761
0.473794
0.473794
0.473827
0.473859
0.473892
0.473925
0.473925
0.473958
0.473991
0.474024
0.474057
0.474057
0.47409
0.474123
0.474157
0.47419
0.47419
0.474223
0.474256
0.474289
0.474323
0.474323
0.474356
0.474389
0.474423
0.474456
0.474456
0.47449
0.474523
0.474557
0.47459
0.47459
0.474624
0.474658
0.474691
0.474725
0.474725
0.474759
0.474792
0.474826
0.47486
0.47486
0.474894
0.474928
0.474962
0.474996
0.474996
0.47503
0.475064
0.475098
0.475132
0.475132
0.475166
0.4752
0.475234
0.475268
0.475268
0.475302
0.475337
0.475371
0.475405
0.475405
0.47544
0.475474
0.475508
0.475543
0.475543
0.475577
0.475612
0.475646
0.475681
0.475681
0.475716
0.47575
0.475785
0.47582
0.47582
0.475854
0.475889
0.475924
0.475959
0.475959
0.475994
0.476028
0.476063
0.476098
0.476098
0.476133
0.476168
0.476203
0.476238
0.476238
0.476274
0.476309
0.476344
0.476379
0.476379
0.476414
0.47645
0.476485
0.47652
0.47652
0.476556
0.476591
0.476626
0.476662
0.476662
0.476697
0.476733
0.476769
0.476804
0.476804
0.47684
0.476875
0.476911
0.476947
0.476947
0.476983
0.477018
0.477054
0.47709
0.47709
0.477126
0.477162
0.477198
0.477234
0.477234
0.47727
0.477306
0.477342
0.477378
0.477378
0.477414
0.47745
0.477486
0.477523
0.477523
0.477559
0.477595
0.477632
0.477668
0.477668
0.477704
0.477741
0.477777
0.477814
0.477814
0.47785
0.477887
0.477923
0.47796
0.47796
0.477997
0.478033
0.47807
0.478107
0.478107
0.478143
0.47818
0.478217
0.478254
0.478254
0.478291
0.478328
0.478365
0.478402
0.478402
0.478439
0.478476
0.478513
0.47855
0.47855
0.478587
0.478624
0.478662
0.478699
0.478699
0.478736
0.478773
0.478811
0.478848
0.478848
0.478886
0.478923
0.478961
0.478998
0.478998
0.479036
0.479073
0.479111
0.479148
0.479148
0.479186
0.479224
0.479262
0.479299
0.479299
0.479337
0.479375
0.479413
0.479451
0.479451
0.479489
0.479527
0.479565
0.479603
0.479603
0.479641
0.479679
0.479717
0.479755
0.479755
0.479793
0.479831
0.47987
0.479908
0.479908
0.479946
0.479985
0.480023
0.480061
0.480061
0.4801
0.480138
0.480177
0.480215
0.480215
0.480254
0.480292
0.480331
0.48037
0.48037
0.480408
0.480447
0.480486
0.480525
0.480525
0.480564
0.480602
0.480641
0.48068
0.48068
0.480719
0.480758
0.480797
0.480836
0.480836
0.480875
0.480914
0.480954
0.480993
0.480993
0.481032
0.481071
0.481111
0.48115
0.48115
0.481189
0.481229
0.481268
0.481307
0.481307
0.481347
0.481386
0.481426
0.481465
0.481465
0.481505
0.481545
0.481584
0.481624
0.481624
0.481664
0.481704
0.481743
0.481783
0.481783
0.481823
0.481863
0.481903
0.481943
0.481943
0.481983
0.482023
0.482063
0.482103
0.482103
0.482143
0.482183
0.482223
0.482264
0.482264
0.482304
0.482344
0.482384
0.482425
0.482425
0.482465
0.482506
0.482546
0.482586
0.482586
0.482627
0.482667
0.482708
0.482749
0.482749
0.482789
0.48283
0.482871
0.482911
0.482911
0.482952
0.482993
0.483034
0.483075
0.483075
0.483116
0.483156
0.483197
0.483238
0.483238
0.483279
0.48332
0.483362
0.483403
0.483403
0.483444
0.483485
0.483526
0.483567
0.483567
0.483609
0.48365
0.483691
0.483733
0.483733
0.483774
0.483816
0.483857
0.483899
0.483899
0.48394
0.483982
0.484023
0.484065
0.484065
0.484107
0.484148
0.48419
0.484232
0.484232
0.484274
0.484316
0.484357
0.484399
0.484399
0.484441
0.484483
0.484525
0.484567
0.484567
0.484609
0.484651
0.484693
0.484736
0.484736
0.484778
0.48482
0.484862
0.484905
0.484905
0.484947
0.484989
0.485032
0.485074
0.485074
0.485117
0.485159
0.485202
0.485244
0.485244
0.485287
0.485329
0.485372
0.485415
0.485415
0.485457
0.4855
0.485543
0.485586
0.485586
0.485628
0.485671
0.485714
0.485757
0.485757
0.4858
0.485843
0.485886
0.485929
0.485929
0.485972
0.486016
0.486059
0.486102
0.486102
0.486145
0.486188
0.486232
0.486275
0.486275
0.486318
0.486362
0.486405
0.486449
0.486449
0.486492
0.486536
0.486579
0.486623
0.486623
0.486666
0.48671
0.486754
0.486798
0.486798
0.486841
0.486885
0.486929
0.486973
0.486973
0.487017
0.487061
0.487105
0.487149
0.487149
0.487193
0.487237
0.487281
0.487325
0.487325
0.487369
0.487413
0.487457
0.487502
0.487502
0.487546
0.48759
0.487635
0.487679
0.487679
0.487723
0.487768
0.487812
0.487857
0.487857
0.487901
0.487946
0.487991
0.488035
0.488035
0.48808
0.488125
0.488169
0.488214
0.488214
0.488259
0.488304
0.488349
0.488393
0.488393
0.488438
0.488483
0.488528
0.488573
0.488573
0.488618
0.488664
0.488709
0.488754
0.488754
0.488799
0.488844
0.48889
0.488935
0.488935
0.48898
0.489026
0.489071
0.489116
0.489116
0.489162
0.489207
0.489253
0.489298
0.489298
0.489344
0.48939
0.489435
0.489481
0.489481
0.489527
0.489573
0.489618
0.489664
0.489664
0.48971
0.489756
0.489802
0.489848
0.489848
0.489894
0.48994
0.489986
0.490032
0.490032
0.490078
0.490124
0.49017
0.490217
0.490217
0.490263
0.490309
0.490356
0.490402
0.490402
0.490448
0.490495
0.490541
0.490588
0.490588
0.490634
0.490681
0.490727
0.490774
0.490774
0.490821
0.490867
0.490914
0.490961
0.490961
0.491007
0.491054
0.491101
0.491148
0.491148
0.491195
0.491242
0.491289
0.491336
0.491336
0.491383
0.49143
0.491477
0.491524
0.491524
0.491571
0.491619
0.491666
0.491713
0.491713
0.491761
0.491808
0.491855
0.491903
0.491903
0.49195
0.491998
0.492045
0.492093
0.492093
0.49214
0.492188
0.492236
0.492283
0.492283
0.492331
0.492379
0.492426
0.492474
0.492474
0.492522
0.49257
0.492618
0.492666
0.492666
0.492714
0.492762
0.49281
0.492858
0.492858
0.492906
0.492954
0.493002
0.493051
0.493051
0.493099
0.493147
0.493195
0.493244
0.493244
0.493292
0.493341
0.493389
0.493437
0.493437
0.493486
0.493535
0.493583
0.493632
0.493632
0.49368
0.493729
0.493778
0.493826
0.493826
0.493875
0.493924
0.493973
0.494022
0.494022
0.494071
0.49412
0.494169
0.494218
0.494218
0.494267
0.494316
0.494365
0.494414
0.494414
0.494463
0.494512
0.494562
0.494611
0.494611
0.49466
0.49471
0.494759
0.494808
0.494808
0.494858
0.494907
0.494957
0.495006
0.495006
0.495056
0.495106
0.495155
0.495205
0.495205
0.495255
0.495304
0.495354
0.495404
0.495404
0.495454
0.495504
0.495554
0.495604
0.495604
0.495654
0.495704
0.495754
0.495804
0.495804
0.495854
0.495904
0.495954
0.496004
0.496004
0.496055
0.496105
0.496155
0.496206
0.496206
0.496256
0.496306
0.496357
0.496407
0.496407
0.496458
0.496508
0.496559
0.49661
0.49661
0.49666
0.496711
0.496762
0.496812
0.496812
0.496863
0.496914
0.496965
0.497016
0.497016
0.497067
0.497118
0.497169
0.49722
0.49722
0.497271
0.497322
0.497373
0.497424
0.497424
0.497475
0.497526
0.497578
0.497629
0.497629
0.49768
0.497732
0.497783
0.497834
0.497834
0.497886
0.497937
0.497989
0.49804
0.49804
0.498092
0.498144
0.498195
0.498247
0.498247
0.498299
0.498351
0.498402
0.498454
0.498454
0.498506
0.498558
0.49861
0.498662
0.498662
0.498714
0.498766
0.498818
0.49887
0.49887
0.498922
0.498974
0.499027
0.499079
0.499079
0.499131
0.499183
0.499236
0.499288
0.499288
0.499341
0.499393
0.499445
0.499498
0.499498
0.49955
0.499603
0.499656
0.499708
0.499708
0.499761
0.499814
0.499866
0.499919
0.499919
0.499972
0.500025
0.500078
0.500131
0.500131
0.500184
0.500237
0.50029
0.500343
0.500343
0.500396
0.500449
0.500502
0.500555
0.500555
0.500608
0.500662
0.500715
0.500768
0.500768
0.500822
0.500875
0.500928
0.500982
0.500982
0.501035
0.501089
0.501142
0.501196
0.501196
0.50125
0.501303
0.501357
0.501411
0.501411
0.501465
0.501518
0.501572
0.501626
0.501626
0.50168
0.501734
0.501788
0.501842
0.501842
0.501896
0.50195
0.502004
0.502058
0.502058
0.502112
0.502167
0.502221
0.502275
0.502275
0.502329
0.502384
0.502438
0.502493
0.502493
0.502547
0.502601
0.502656
0.502711
0.502711
0.502765
0.50282
0.502874
0.502929
0.502929
0.502984
0.503039
0.503093
0.503148
0.503148
0.503203
0.503258
0.503313
0.503368
0.503368
0.503423
0.503478
0.503533
0.503588
0.503588
0.503643
0.503698
0.503753
0.503809
0.503809
0.503864
0.503919
0.503975
0.50403
0.50403
0.504085
0.504141
0.504196
0.504252
0.504252
0.504307
0.504363
0.504419
0.504474
0.504474
0.50453
0.504586
0.504641
0.504697
0.504697
0.504753
0.504809
0.504865
0.504921
0.504921
0.504977
0.505033
0.505089
0.505145
0.505145
0.505201
0.505257
0.505313
0.505369
0.505369
0.505425
0.505482
0.505538
0.505594
0.505594
0.505651
0.505707
0.505764
0.50582
0.50582
0.505877
0.505933
0.50599
0.506046
0.506046
0.506103
0.50616
0.506216
0.506273
0.506273
0.50633
0.506387
0.506443
0.5065
0.5065
0.506557
0.506614
0.506671
0.506728
0.506728
0.506785
0.506842
0.5069
0.506957
0.506957
0.507014
0.507071
0.507128
0.507186
0.507186
0.507243
0.5073
0.507358
0.507415
0.507415
0.507473
0.50753
0.507588
0.507645
0.507645
0.507703
0.507761
0.507818
0.507876
0.507876
0.507934
0.507992
0.508049
0.508107
0.508107
0.508165
0.508223
0.508281
0.508339
0.508339
0.508397
0.508455
0.508513
0.508571
0.508571
0.508629
0.508688
0.508746
0.508804
0.508804
0.508862
0.508921
0.508979
0.509038
0.509038
0.509096
0.509155
0.509213
0.509272
0.509272
0.50933
0.509389
0.509447
0.509506
0.509506
0.509565
0.509624
0.509682
0.509741
0.509741
0.5098
0.509859
0.509918
0.509977
0.509977
0.510036
0.510095
0.510154
0.510213
0.510213
0.510272
0.510331
0.510391
0.51045
0.51045
0.510509
0.510568
0.510628
0.510687
0.510687
0.510747
0.510806
0.510866
0.510925
0.510925
0.510985
0.511044
0.511104
0.511164
0.511164
0.511223
0.511283
0.511343
0.511403
0.511403
0.511462
0.511522
0.511582
0.511642
0.511642
0.511702
0.511762
0.511822
0.511882
0.511882
0.511942
0.512003
0.512063
0.512123
0.512123
0.512183
0.512244
0.512304
0.512364
0.512364
0.512425
0.512485
0.512546
0.512606
0.512606
0.512667
0.512727
0.512788
0.512849
0.512849
0.512909
0.51297
0.513031
0.513091
0.513091
0.513152
0.513213
0.513274
0.513335
0.513335
0.513396
0.513457
0.513518
0.513579
0.513579
0.51364
0.513701
0.513762
0.513824
0.513824
0.513885
0.513946
0.514008
0.514069
0.514069
0.51413
0.514192
0.514253
0.514315
0.514315
0.514376
0.514438
0.514499
0.514561
0.514561
0.514623
0.514684
0.514746
0.514808
0.514808
0.51487
0.514932
0.514993
0.515055
0.515055
0.515117
0.515179
0.515241
0.515303
0.515303
0.515366
0.515428
0.51549
0.515552
0.515552
0.515614
0.515677
0.515739
0.515801
0.515801
0.515864
0.515926
0.515988
0.516051
0.516051
0.516113
0.516176
0.516239
0.516301
0.516301
0.516364
0.516427
0.516489
0.516552
0.516552
0.516615
0.516678
0.516741
0.516804
0.516804
0.516866
0.516929
0.516992
0.517056
0.517056
0.517119
0.517182
0.517245
0.517308
0.517308
0.517371
0.517435
0.517498
0.517561
0.517561
0.517625
0.517688
0.517752
0.517815
0.517815
0.517879
0.517942
0.518006
0.518069
0.518069
0.518133
0.518197
0.51826
0.518324
0.518324
0.518388
0.518452
0.518516
0.51858
0.51858
0.518644
0.518708
0.518772
0.518836
0.518836
0.5189
0.518964
0.519028
0.519092
0.519092
0.519156
0.519221
0.519285
0.519349
0.519349
0.519414
0.519478
0.519543
0.519607
0.519607
0.519672
0.519736
0.519801
0.519865
0.519865
0.51993
0.519995
0.520059
0.520124
0.520124
0.520189
0.520254
0.520319
0.520384
0.520384
0.520449
0.520514
0.520579
0.520644
0.520644
0.520709
0.520774
0.520839
0.520904
0.520904
0.52097
0.521035
0.5211
0.521165
0.521165
0.521231
0.521296
0.521362
0.521427
0.521427
0.521493
0.521558
0.521624
0.52169
0.52169
0.521755
0.521821
0.521887
0.521952
0.521952
0.522018
0.522084
0.52215
0.522216
0.522216
0.522282
0.522348
0.522414
0.52248
0.52248
0.522546
0.522612
0.522678
0.522745
0.522745
0.522811
0.522877
0.522944
0.52301
0.52301
0.523076
0.523143
0.523209
0.523276
0.523276
0.523342
0.523409
0.523475
0.523542
0.523542
0.523609
0.523675
0.523742
0.523809
0.523809
0.523876
0.523943
0.52401
0.524077
0.524077
0.524144
0.524211
0.524278
0.524345
0.524345
0.524412
0.524479
0.524546
0.524613
0.524613
0.524681
0.524748
0.524815
0.524883
0.524883
0.52495
0.525018
0.525085
0.525153
0.525153
0.52522
0.525288
0.525355
0.525423
0.525423
0.525491
0.525559
0.525626
0.525694
0.525694
0.525762
0.52583
0.525898
0.525966
0.525966
0.526034
0.526102
0.52617
0.526238
0.526238
0.526306
0.526374
0.526442
0.526511
0.526511
0.526579
0.526647
0.526716
0.526784
0.526784
0.526853
0.526921
0.52699
0.527058
0.527058
0.527127
0.527195
0.527264
0.527333
0.527333
0.527401
0.52747
0.527539
0.527608
0.527608
0.527677
0.527746
0.527815
0.527884
0.527884
0.527953
0.528022
0.528091
0.52816
0.52816
0.528229
0.528298
0.528367
0.528437
0.528437
0.528506
0.528575
0.528645
0.528714
0.528714
0.528784
0.528853
0.528923
0.528992
0.528992
0.529062
0.529132
0.529201
0.529271
0.529271
0.529341
0.529411
0.52948
0.52955
0.52955
0.52962
0.52969
0.52976
0.52983
0.52983
0.5299
0.52997
0.53004
0.530111
0.530111
0.530181
0.530251
0.530321
0.530392
0.530392
0.530462
0.530532
0.530603
0.530673
0.530673
0.530744
0.530814
0.530885
0.530955
0.530955
0.531026
0.531097
0.531168
0.531238
0.531238
0.531309
0.53138
0.531451
0.531522
0.531522
0.531593
0.531664
0.531735
0.531806
0.531806
0.531877
0.531948
0.532019
0.53209
0.53209
0.532162
0.532233
0.532304
0.532376
0.532376
0.532447
0.532518
0.53259
0.532661
0.532661
0.532733
0.532804
0.532876
0.532948
0.532948
0.533019
0.533091
0.533163
0.533235
0.533235
0.533307
0.533378
0.53345
0.533522
0.533522
0.533594
0.533666
0.533738
0.53381
0.53381
0.533883
0.533955
0.534027
0.534099
0.534099
0.534172
0.534244
0.534316
0.534389
0.534389
0.534461
0.534534
0.534606
0.534679
0.534679
0.534751
0.534824
0.534896
0.534969
0.534969
0.535042
0.535115
0.535188
0.53526
0.53526
0.535333
0.535406
0.535479
0.535552
0.535552
0.535625
0.535698
0.535771
0.535845
0.535845
0.535918
0.535991
0.536064
0.536138
0.536138
0.536211
0.536284
0.536358
0.536431
0.536431
0.536505
0.536578
0.536652
0.536725
0.536725
0.536799
0.536873
0.536946
0.53702
0.53702
0.537094
0.537168
0.537242
0.537316
0.537316
0.537389
0.537463
0.537537
0.537612
0.537612
0.537686
0.53776
0.537834
0.537908
0.537908
0.537982
0.538057
0.538131
0.538205
0.538205
0.53828
0.538354
0.538429
0.538503
0.538503
0.538578
0.538652
0.538727
0.538802
0.538802
0.538876
0.538951
0.539026
0.539101
0.539101
0.539176
0.53925
0.539325
0.5394
0.5394
0.539475
0.53955
0.539625
0.539701
0.539701
0.539776
0.539851
0.539926
0.540001
0.540001
0.540077
0.540152
0.540228
0.540303
0.540303
0.540378
0.540454
0.540529
0.540605
0.540605
0.540681
0.540756
0.540832
0.540908
0.540908
0.540983
0.541059
0.541135
0.541211
0.541211
0.541287
0.541363
0.541439
0.541515
0.541515
0.541591
0.541667
0.541743
0.541819
0.541819
0.541896
0.541972
0.542048
0.542125
0.542125
0.542201
0.542277
0.542354
0.54243
0.54243
0.542507
0.542584
0.54266
0.542737
0.542737
0.542813
0.54289
0.542967
0.543044
0.543044
0.543121
0.543198
0.543274
0.543351
0.543351
0.543428
0.543505
0.543583
0.54366
0.54366
0.543737
0.543814
0.543891
0.543968
0.543968
0.544046
0.544123
0.5442
0.544278
0.544278
0.544355
0.544433
0.54451
0.544588
0.544588
0.544666
0.544743
0.544821
0.544899
0.544899
0.544976
0.545054
0.545132
0.54521
0.54521
0.545288
0.545366
0.545444
0.545522
0.545522
0.5456
0.545678
0.545756
0.545834
0.545834
0.545913
0.545991
0.546069
0.546148
0.546148
0.546226
0.546304
0.546383
0.546461
0.546461
0.54654
0.546619
0.546697
0.546776
0.546776
0.546855
0.546933
0.547012
0.547091
0.547091
0.54717
0.547249
0.547328
0.547407
0.547407
0.547486
0.547565
0.547644
0.547723
0.547723
0.547802
0.547881
0.547961
0.54804
0.54804
0.548119
0.548198
0.548278
0.548357
0.548357
0.548437
0.548516
0.548596
0.548676
0.548676
0.548755
0.548835
0.548915
0.548994
0.548994
0.549074
0.549154
0.549234
0.549314
0.549314
0.549394
0.549474
0.549554
0.549634
0.549634
0.549714
0.549794
0.549874
0.549954
0.549954
0.550035
0.550115
0.550195
0.550276
0.550276
0.550356
0.550437
0.550517
0.550598
0.550598
0.550678
0.550759
0.55084
0.55092
0.55092
0.551001
0.551082
0.551163
0.551243
0.551243
0.551324
0.551405
0.551486
0.551567
0.551567
0.551648
0.551729
0.551811
0.551892
0.551892
0.551973
0.552054
0.552135
0.552217
0.552217
0.552298
0.55238
0.552461
0.552543
0.552543
0.552624
0.552706
0.552787
0.552869
0.552869
0.552951
0.553032
0.553114
0.553196
0.553196
0.553278
0.55336
0.553442
0.553523
0.553523
0.553605
0.553688
0.55377
0.553852
0.553852
0.553934
0.554016
0.554098
0.554181
0.554181
0.554263
0.554345
0.554428
0.55451
0.55451
0.554593
0.554675
0.554758
0.55484
0.55484
0.554923
0.555006
0.555088
0.555171
0.555171
0.555254
0.555337
0.55542
0.555503
0.555503
0.555586
0.555669
0.555752
0.555835
0.555835
0.555918
0.556001
0.556084
0.556167
0.556167
0.556251
0.556334
0.556417
0.556501
0.556501
0.556584
0.556668
0.556751
0.556835
0.556835
0.556918
0.557002
0.557086
0.557169
0.557169
0.557253
0.557337
0.557421
0.557505
0.557505
0.557589
0.557673
0.557757
0.557841
0.557841
0.557925
0.558009
0.558093
0.558177
0.558177
0.558262
0.558346
0.55843
0.558515
0.558515
0.558599
0.558683
0.558768
0.558852
0.558852
0.558937
0.559022
0.559106
0.559191
0.559191
0.559275
0.55936
0.559445
0.559529
0.559529
0.559614
0.559697
0.559781
0.559863
0.559863
0.559944
0.560023
0.560099
0.560173
0.560173
0.560246
0.560318
0.56039
0.560462
0.560462
0.560534
0.560606
0.560677
0.560749
0.560749
0.560821
0.560893
0.560964
0.561036
0.561036
0.561108
0.56118
0.561252
0.561324
0.561324
0.561396
0.561468
0.56154
0.561612
0.561612
0.561684
0.561756
0.561828
0.561901
0.561901
0.561973
0.562045
0.562117
0.56219
0.56219
0.562262
0.562335
0.562407
0.562479
0.562479
0.562552
0.562624
0.562697
0.562769
0.562769
0.562842
0.562915
0.562987
0.56306
0.56306
0.563133
0.563205
0.563278
0.563351
0.563351
0.563424
0.563496
0.563569
0.563642
0.563642
0.563715
0.563787
0.56386
0.563932
0.563932
0.564004
0.564075
0.564145
0.564215
0.564215
0.564283
0.564349
0.564413
0.564475
0.564475
0.564536
0.564596
0.564655
0.564713
0.564713
0.564772
0.56483
0.564888
0.564946
0.564946
0.565004
0.565062
0.565119
0.565177
0.565177
0.565235
0.565293
0.565351
0.565409
0.565409
0.565467
0.565525
0.565583
0.565641
0.565641
0.565699
0.565757
0.565815
0.565873
0.565873
0.565931
0.565989
0.566047
0.566105
0.566105
0.566163
0.566221
0.566279
0.566338
0.566338
0.566396
0.566454
0.566512
0.56657
0.56657
0.566629
0.566687
0.566745
0.566804
0.566804
0.566862
0.56692
0.566979
0.567037
0.567037
0.567095
0.567153
0.567211
0.567269
0.567269
0.567327
0.567385
0.567442
0.567498
0.567498
0.567554
0.56761