<?xml version="1.0"?>
<VTKFile type="UnstructuredGrid" version="0.1" byte_order="LittleEndian">
<UnstructuredGrid>
<Piece NumberOfPoints="5000" NumberOfCells="4000">
<PointData Scalars="Reaction 0">
<DataArray type="Float32" Name="Reaction 0" format="ascii">
0.705745
0.705745
0.705745
0.705745
0.705745
0.705745
0.705745
0.705745
0.705745
0.705745
0.705745
0.705745
0.705745
0.705745
0.705745
0.705745
0.705745
0.705745
0.705745
0.705745
0.705745
0.705746
0.705746
0.705746
0.705746
0.705746
0.705746
0.705746
0.705746
0.705746
0.705746
0.705747
0.705747
0.705747
0.705747
0.705747
0.705747
0.705748
0.705748
0.705748
0.705748
0.705748
0.705748
0.705749
0.705749
0.705749
0.705749
0.705749
0.70575
0.70575
0.70575
0.70575
0.70575
0.705751
0.705751
0.705751
0.705751
0.705751
0.705752
0.705752
0.705752
0.705752
0.705753
0.705753
0.705753
0.705753
0.705754
0.705754
0.705754
0.705755
0.705755
0.705755
0.705756
0.705756
0.705756
0.705756
0.705757
0.705757
0.705757
0.705758
0.705758
0.705758
0.705759
0.705759
0.70576
0.70576
0.70576
0.70576
0.705761
0.705761
0.705761
0.705762
0.705762
0.705763
0.705763
0.705763
0.705764
0.705764
0.705765
0.705765
0.705765
0.705766
0.705766
0.705767
0.705767
0.705767
0.705768
0.705769
0.705769
0.70577
0.70577
0.70577
0.705771
0.705771
0.705772
0.705772
0.705773
0.705773
0.705774
0.705774
0.705774
0.705775
0.705776
0.705776
0.705777
0.705777
0.705778
0.705778
0.705779
0.70578
0.70578
0.70578
0.705781
0.705782
0.705782
0.705782
0.705783
0.705784
0.705785
0.705785
0.705785
0.705786
0.705787
0.705787
0.705788
0.705788
0.705789
0.70579
0.70579
0.705791
0.705791
0.705792
0.705793
0.705794
0.705794
0.705794
0.705795
0.705796
0.705797
0.705798
0.705798
0.705798
0.705799
0.7058
0.705801
0.705801
0.705802
0.705803
0.705804
0.705804
0.705804
0.705805
0.705806
0.705807
0.705808
0.705808
0.705809
0.70581
0.705811
0.705812
0.705812
0.705813
0.705814
0.705815
0.705816
0.705816
0.705816
0.705817
0.705818
0.705819
0.705819
0.70582
0.705821
0.705822
0.705823
0.705823
0.705824
0.705825
0.705826
0.705827
0.705827
0.705829
0.70583
0.705831
0.705832
0.705832
0.705833
0.705834
0.705835
0.705836
0.705836
0.705837
0.705838
0.705839
0.70584
0.70584
0.705842
0.705843
0.705844
0.705845
0.705845
0.705846
0.705847
0.705848
0.70585
0.70585
0.705851
0.705852
0.705853
0.705854
0.705854
0.705855
0.705857
0.705858
0.705859
0.705859
0.70586
0.705861
0.705863
0.705864
0.705864
0.705865
0.705866
0.705868
0.705869
0.705869
0.70587
0.705872
0.705873
0.705874
0.705874
0.705875
0.705877
0.705878
0.705879
0.705879
0.705881
0.705882
0.705883
0.705885
0.705885
0.705886
0.705887
0.705889
0.70589
0.70589
0.705892
0.705893
0.705894
0.705896
0.705896
0.705897
0.705898
0.7059
0.705901
0.705901
0.705903
0.705904
0.705906
0.705907
0.705907
0.705909
0.70591
0.705911
0.705913
0.705913
0.705914
0.705916
0.705917
0.705919
0.705919
0.70592
0.705922
0.705923
0.705925
0.705925
0.705926
0.705928
0.70593
0.705931
0.705931
0.705933
0.705934
0.705936
0.705937
0.705937
0.705939
0.705941
0.705942
0.705944
0.705944
0.705945
0.705947
0.705949
0.70595
0.70595
0.705952
0.705954
0.705955
0.705957
0.705957
0.705958
0.70596
0.705962
0.705964
0.705964
0.705965
0.705967
0.705969
0.70597
0.70597
0.705972
0.705974
0.705975
0.705977
0.705977
0.705979
0.705981
0.705982
0.705984
0.705984
0.705986
0.705988
0.70599
0.705991
0.705991
0.705993
0.705995
0.705997
0.705999
0.705999
0.706
0.706002
0.706004
0.706006
0.706006
0.706008
0.70601
0.706011
0.706013
0.706013
0.706015
0.706017
0.706019
0.706021
0.706021
0.706023
0.706025
0.706026
0.706028
0.706028
0.70603
0.706032
0.706034
0.706036
0.706036
0.706038
0.70604
0.706042
0.706044
0.706044
0.706046
0.706048
0.70605
0.706052
0.706052
0.706054
0.706056
0.706058
0.70606
0.70606
0.706062
0.706064
0.706066
0.706068
0.706068
0.70607
0.706072
0.706074
0.706076
0.706076
0.706078
0.70608
0.706083
0.706085
0.706085
0.706087
0.706089
0.706091
0.706093
0.706093
0.706095
0.706097
0.706099
0.706102
0.706102
0.706104
0.706106
0.706108
0.70611
0.70611
0.706112
0.706115
0.706117
0.706119
0.706119
0.706121
0.706123
0.706126
0.706128
0.706128
0.70613
0.706132
0.706135
0.706137
0.706137
0.706139
0.706141
0.706144
0.706146
0.706146
0.706148
0.706151
0.706153
0.706155
0.706155
0.706157
0.70616
0.706162
0.706164
0.706164
0.706167
0.706169
0.706171
0.706174
0.706174
0.706176
0.706179
0.706181
0.706183
0.706183
0.706186
0.706188
0.70619
0.706193
0.706193
0.706195
0.706198
0.7062
0.706203
0.706203
0.706205
0.706207
0.70621
0.706212
0.706212
0.706215
0.706217
0.70622
0.706222
0.706222
0.706225
0.706227
0.70623
0.706232
0.706232
0.706235
0.706237
0.70624
0.706242
0.706242
0.706245
0.706247
0.70625
0.706252
0.706252
0.706255
0.706258
0.70626
0.706263
0.706263
0.706265
0.706268
0.706271
0.706273
0.706273
0.706276
0.706279
0.706281
0.706284
0.706284
0.706286
0.706289
0.706292
0.706294
0.706294
0.706297
0.7063
0.706303
0.706305
0.706305
0.706308
0.706311
0.706313
0.706316
0.706316
0.706319
0.706322
0.706324
0.706327
0.706327
0.70633
0.706333
0.706335
0.706338
0.706338
0.706341
0.706344
0.706347
0.706349
0.706349
0.706352
0.706355
0.706358
0.706361
0.706361
0.706363
0.706366
0.706369
0.706372
0.706372
0.706375
0.706378
0.706381
0.706383
0.706383
0.706386
0.706389
0.706392
0.706395
0.706395
0.706398
0.706401
0.706404
0.706407
0.706407
0.70641
0.706413
0.706416
0.706418
0.706418
0.706421
0.706424
0.706427
0.70643
0.70643
0.706433
0.706436
0.706439
0.706442
0.706442
0.706445
0.706448
0.706451
0.706454
0.706454
0.706458
0.706461
0.706464
0.706467
0.706467
0.70647
0.706473
0.706476
0.706479
0.706479
0.706482
0.706485
0.706488
0.706491
0.706491
0.706495
0.706498
0.706501
0.706504
0.706504
0.706507
0.70651
0.706513
0.706517
0.706517
0.70652
0.706523
0.706526
0.706529
0.706529
0.706532
0.706536
0.706539
0.706542
0.706542
0.706545
0.706549
0.706552
0.706555
0.706555
0.706558
0.706562
0.706565
0.706568
0.706568
0.706571
0.706575
0.706578
0.706581
0.706581
0.706585
0.706588
0.706591
0.706594
0.706594
0.706598
0.706601
0.706604
0.706608
0.706608
0.706611
0.706615
0.706618
0.706621
0.706621
0.706625
0.706628
0.706631
0.706635
0.706635
0.706638
0.706642
0.706645
0.706649
0.706649
0.706652
0.706655
0.706659
0.706662
0.706662
0.706666
0.706669
0.706673
0.706676
0.706676
0.70668
0.706683
0.706687
0.70669
0.70669
0.706694
0.706697
0.706701
0.706704
0.706704
0.706708
0.706711
0.706715
0.706718
0.706718
0.706722
0.706726
0.706729
0.706733
0.706733
0.706736
0.70674
0.706743
0.706747
0.706747
0.706751
0.706754
0.706758
0.706762
0.706762
0.706765
0.706769
0.706773
0.706776
0.706776
0.70678
0.706784
0.706787
0.706791
0.706791
0.706795
0.706798
0.706802
0.706806
0.706806
0.706809
0.706813
0.706817
0.706821
0.706821
0.706824
0.706828
0.706832
0.706836
0.706836
0.706839
0.706843
0.706847
0.706851
0.706851
0.706855
0.706858
0.706862
0.706866
0.706866
0.70687
0.706874
0.706878
0.706881
0.706881
0.706885
0.706889
0.706893
0.706897
0.706897
0.706901
0.706905
0.706909
0.706912
0.706912
0.706916
0.70692
0.706924
0.706928
0.706928
0.706932
0.706936
0.70694
0.706944
0.706944
0.706948
0.706952
0.706956
0.70696
0.70696
0.706964
0.706968
0.706972
0.706976
0.706976
0.70698
0.706984
0.706988
0.706992
0.706992
0.706996
0.707
0.707004
0.707008
0.707008
0.707012
0.707016
0.70702
0.707024
0.707024
0.707028
0.707032
0.707036
0.707041
0.707041
0.707045
0.707049
0.707053
0.707057
0.707057
0.707061
0.707065
0.707069
0.707074
0.707074
0.707078
0.707082
0.707086
0.70709
0.70709
0.707094
0.707099
0.707103
0.707107
0.707107
0.707111
0.707115
0.70712
0.707124
0.707124
0.707128
0.707132
0.707137
0.707141
0.707141
0.707145
0.707149
0.707154
0.707158
0.707158
0.707162
0.707167
0.707171
0.707175
0.707175
0.70718
0.707184
0.707188
0.707193
0.707193
0.707197
0.707201
0.707206
0.70721
0.70721
0.707214
0.707219
0.707223
0.707228
0.707228
0.707232
0.707237
0.707241
0.707245
0.707245
0.70725
0.707254
0.707259
0.707263
0.707263
0.707268
0.707272
0.707277
0.707281
0.707281
0.707286
0.70729
0.707295
0.707299
0.707299
0.707304
0.707308
0.707313
0.707317
0.707317
0.707322
0.707326
0.707331
0.707335
0.707335
0.70734
0.707344
0.707349
0.707354
0.707354
0.707358
0.707363
0.707367
0.707372
0.707372
0.707377
0.707381
0.707386
0.707391
0.707391
0.707395
0.7074
0.707404
0.707409
0.707409
0.707414
0.707419
0.707423
0.707428
0.707428
0.707433
0.707437
0.707442
0.707447
0.707447
0.707451
0.707456
0.707461
0.707466
0.707466
0.70747
0.707475
0.70748
0.707485
0.707485
0.707489
0.707494
0.707499
0.707504
0.707504
0.707509
0.707513
0.707518
0.707523
0.707523
0.707528
0.707533
0.707538
0.707542
0.707542
0.707547
0.707552
0.707557
0.707562
0.707562
0.707567
0.707572
0.707576
0.707581
0.707581
0.707586
0.707591
0.707596
0.707601
0.707601
0.707606
0.707611
0.707616
0.707621
0.707621
0.707626
0.707631
0.707636
0.707641
0.707641
0.707646
0.707651
0.707656
0.707661
0.707661
0.707666
0.707671
0.707676
0.707681
0.707681
0.707686
0.707691
0.707696
0.707701
0.707701
0.707706
0.707711
0.707716
0.707721
0.707721
0.707726
0.707731
0.707736
0.707742
0.707742
0.707747
0.707752
0.707757
0.707762
0.707762
0.707767
0.707772
0.707778
0.707783
0.707783
0.707788
0.707793
0.707798
0.707803
0.707803
0.707809
0.707814
0.707819
0.707824
0.707824
0.707829
0.707835
0.70784
0.707845
0.707845
0.70785
0.707856
0.707861
0.707866
0.707866
0.707871
0.707877
0.707882
0.707887
0.707887
0.707893
0.707898
0.707903
0.707909
0.707909
0.707914
0.707919
0.707925
0.70793
0.70793
0.707935
0.707941
0.707946
0.707951
0.707951
0.707957
0.707962
0.707967
0.707973
0.707973
0.707978
0.707984
0.707989
0.707994
0.707994
0.708
0.708005
0.708011
0.708016
0.708016
0.708022
0.708027
0.708033
0.708038
0.708038
0.708043
0.708049
0.708054
0.70806
0.70806
0.708065
0.708071
0.708076
0.708082
0.708082
0.708088
0.708093
0.708099
0.708104
0.708104
0.70811
0.708115
0.708121
0.708127
0.708127
0.708132
0.708138
0.708143
0.708149
0.708149
0.708155
0.70816
0.708166
0.708172
0.708172
0.708177
0.708183
0.708189
0.708194
0.708194
0.7082
0.708206
0.708211
0.708217
0.708217
0.708223
0.708229
0.708234
0.70824
0.70824
0.708246
0.708252
0.708257
0.708263
0.708263
0.708269
0.708275
0.70828
0.708286
0.708286
0.708292
0.708298
0.708303
0.708309
0.708309
0.708315
0.708321
0.708327
0.708333
0.708333
0.708338
0.708344
0.70835
0.708356
0.708356
0.708362
0.708368
0.708374
0.708379
0.708379
0.708385
0.708391
0.708397
0.708403
0.708403
0.708409
0.708415
0.708421
0.708427
0.708427
0.708433
0.708439
0.708445
0.708451
0.708451
0.708456
0.708462
0.708468
0.708474
0.708474
0.70848
0.708486
0.708492
0.708498
0.708498
0.708504
0.70851
0.708517
0.708523
0.708523
0.708529
0.708535
0.708541
0.708547
0.708547
0.708553
0.708559
0.708565
0.708571
0.708571
0.708577
0.708583
0.708589
0.708596
0.708596
0.708602
0.708608
0.708614
0.70862
0.70862
0.708626
0.708632
0.708639
0.708645
0.708645
0.708651
0.708657
0.708663
0.70867
0.70867
0.708676
0.708682
0.708688
0.708694
0.708694
0.708701
0.708707
0.708713
0.708719
0.708719
0.708726
0.708732
0.708738
0.708744
0.708744
0.708751
0.708757
0.708763
0.70877
0.70877
0.708776
0.708782
0.708789
0.708795
0.708795
0.708801
0.708808
0.708814
0.70882
0.70882
0.708827
0.708833
0.708839
0.708846
0.708846
0.708852
0.708859
0.708865
0.708871
0.708871
0.708878
0.708884
0.708891
0.708897
0.708897
0.708903
0.70891
0.708916
0.708923
0.708923
0.708929
0.708936
0.708942
0.708949
0.708949
0.708955
0.708962
0.708968
0.708975
0.708975
0.708981
0.708988
0.708994
0.709001
0.709001
0.709007
0.709014
0.70902
0.709027
0.709027
0.709034
0.70904
0.709047
0.709053
0.709053
0.70906
0.709067
0.709073
0.70908
0.70908
0.709087
0.709093
0.7091
0.709107
0.709107
0.709113
0.70912
0.709127
0.709133
0.709133
0.70914
0.709147
0.709154
0.70916
0.70916
0.709167
0.709174
0.70918
0.709187
0.709187
0.709194
0.709201
0.709208
0.709214
0.709214
0.709221
0.709228
0.709235
0.709241
0.709241
0.709248
0.709255
0.709262
0.709269
0.709269
0.709276
0.709282
0.709289
0.709296
0.709296
0.709303
0.70931
0.709317
0.709324
0.709324
0.70933
0.709337
0.709344
0.709351
0.709351
0.709358
0.709365
0.709372
0.709379
0.709379
0.709386
0.709393
0.7094
0.709407
0.709407
0.709414
0.70942
0.709427
0.709434
0.709434
0.709441
0.709448
0.709455
0.709462
0.709462
0.709469
0.709476
0.709483
0.709491
0.709491
0.709498
0.709505
0.709512
0.709519
0.709519
0.709526
0.709533
0.70954
0.709547
0.709547
0.709554
0.709561
0.709568
0.709575
0.709575
0.709583
0.70959
0.709597
0.709604
0.709604
0.709611
0.709618
0.709625
0.709633
0.709633
0.70964
0.709647
0.709654
0.709661
0.709661
0.709669
0.709676
0.709683
0.70969
0.70969
0.709697
0.709705
0.709712
0.709719
0.709719
0.709726
0.709734
0.709741
0.709748
0.709748
0.709755
0.709763
0.70977
0.709777
0.709777
0.709785
0.709792
0.709799
0.709807
0.709807
0.709814
0.709821
0.709829
0.709836
0.709836
0.709843
0.709851
0.709858
0.709865
0.709865
0.709873
0.70988
0.709887
0.709895
0.709895
0.709902
0.70991
0.709917
0.709925
0.709925
0.709932
0.709939
0.709947
0.709954
0.709954
0.709962
0.709969
0.709977
0.709984
0.709984
0.709992
0.709999
0.710007
0.710014
0.710014
0.710022
0.710029
0.710037
0.710044
0.710044
0.710052
0.71006
0.710067
0.710075
0.710075
0.710082
0.71009
0.710098
0.710105
0.710105
0.710113
0.710121
0.710128
0.710136
0.710136
0.710143
0.710151
0.710159
0.710166
0.710166
0.710174
0.710182
0.710189
0.710197
0.710197
0.710205
0.710213
0.71022
0.710228
0.710228
0.710236
0.710243
0.710251
0.710259
0.710259
0.710267
0.710274
0.710282
0.71029
0.71029
0.710298
0.710306
0.710313
0.710321
0.710321
0.710329
0.710337
0.710345
0.710352
0.710352
0.71036
0.710368
0.710376
0.710384
0.710384
0.710392
0.710399
0.710407
0.710415
0.710415
0.710423
0.710431
0.710439
0.710447
0.710447
0.710455
0.710463
0.710471
0.710478
0.710478
0.710486
0.710494
0.710502
0.71051
0.71051
0.710518
0.710526
0.710534
0.710542
0.710542
0.71055
0.710558
0.710566
0.710574
0.710574
0.710582
0.71059
0.710598
0.710606
0.710606
0.710614
0.710622
0.71063
0.710638
0.710638
0.710647
0.710655
0.710663
0.710671
0.710671
0.710679
0.710687
0.710695
0.710703
0.710703
0.710711
0.710719
0.710728
0.710736
0.710736
0.710744
0.710752
0.71076
0.710768
0.710768
0.710776
0.710785
0.710793
0.710801
0.710801
0.710809
0.710817
0.710826
0.710834
0.710834
0.710842
0.71085
0.710858
0.710867
0.710867
0.710875
0.710883
0.710891
0.7109
0.7109
0.710908
0.710916
0.710925
0.710933
0.710933
0.710941
0.71095
0.710958
0.710966
0.710966
0.710975
0.710983
0.710991
0.711
0.711
0.711008
0.711016
0.711025
0.711033
0.711033
0.711042
0.71105
0.711059
0.711067
0.711067
0.711075
0.711084
0.711092
0.711101
0.711101
0.711109
0.711118
0.711126
0.711135
0.711135
0.711143
0.711152
0.71116
0.711169
0.711169
0.711177
0.711186
0.711194
0.711203
0.711203
0.711211
0.71122
0.711229
0.711237
0.711237
0.711246
0.711254
0.711263
0.711271
0.711271
0.71128
0.711289
0.711297
0.711306
0.711306
0.711315
0.711323
0.711332
0.71134
0.71134
0.711349
0.711358
0.711366
0.711375
0.711375
0.711384
0.711392
0.711401
0.71141
0.71141
0.711419
0.711427
0.711436
0.711445
0.711445
0.711453
0.711462
0.711471
0.71148
0.71148
0.711488
0.711497
0.711506
0.711515
0.711515
0.711524
0.711532
0.711541
0.71155
0.71155
0.711559
0.711568
0.711576
0.711585
0.711585
0.711594
0.711603
0.711612
0.711621
0.711621
0.711629
0.711638
0.711647
0.711656
0.711656
0.711665
0.711674
0.711683
0.711692
0.711692
0.711701
0.71171
0.711718
0.711727
0.711727
0.711736
0.711745
0.711754
0.711763
0.711763
0.711772
0.711781
0.71179
0.711799
0.711799
0.711808
0.711817
0.711826
0.711835
0.711835
0.711844
0.711853
0.711862
0.711871
0.711871
0.71188
0.711889
0.711898
0.711907
0.711907
0.711916
0.711925
0.711935
0.711944
0.711944
0.711953
0.711962
0.711971
0.71198
0.71198
0.711989
0.711999
0.712008
0.712017
0.712017
0.712026
0.712035
0.712045
0.712054
0.712054
0.712063
0.712072
0.712081
0.712091
0.712091
0.7121
0.712109
0.712118
0.712128
0.712128
0.712137
0.712146
0.712156
0.712165
0.712165
0.712174
0.712183
0.712193
0.712202
0.712202
0.712211
0.712221
0.71223
0.712239
0.712239
0.712249
0.712258
0.712267
0.712277
0.712277
0.712286
0.712296
0.712305
0.712314
0.712314
0.712324
0.712333
0.712343
0.712352
0.712352
0.712361
0.712371
0.71238
0.71239
0.71239
0.712399
0.712409
0.712418
0.712428
0.712428
0.712437
0.712447
0.712456
0.712466
0.712466
0.712475
0.712485
0.712494
0.712504
0.712504
0.712513
0.712523
0.712532
0.712542
0.712542
0.712551
0.712561
0.71257
0.71258
0.71258
0.71259
0.712599
0.712609
0.712618
0.712618
0.712628
0.712638
0.712647
0.712657
0.712657
0.712667
0.712676
0.712686
0.712696
0.712696
0.712705
0.712715
0.712725
0.712734
0.712734
0.712744
0.712754
0.712763
0.712773
0.712773
0.712783
0.712792
0.712802
0.712812
0.712812
0.712822
0.712831
0.712841
0.712851
0.712851
0.712861
0.71287
0.71288
0.71289
0.71289
0.7129
0.71291
0.712919
0.712929
0.712929
0.712939
0.712949
0.712959
0.712969
0.712969
0.712978
0.712988
0.712998
0.713008
0.713008
0.713018
0.713028
0.713038
0.713048
0.713048
0.713058
0.713068
0.713078
0.713088
0.713088
0.713098
0.713108
0.713118
0.713128
0.713128
0.713138
0.713148
0.713158
0.713168
0.713168
0.713178
0.713188
0.713198
0.713208
0.713208
0.713218
0.713228
0.713238
0.713248
0.713248
0.713258
0.713268
0.713278
0.713288
0.713288
0.713298
0.713309
0.713319
0.713329
0.713329
0.713339
0.713349
0.713359
0.713369
0.713369
0.71338
0.71339
0.7134
0.71341
0.71341
0.71342
0.71343
0.713441
0.713451
0.713451
0.713461
0.713471
0.713481
0.713492
0.713492
0.713502
0.713512
0.713522
0.713533
0.713533
0.713543
0.713553
0.713563
0.713574
0.713574
0.713584
0.713594
0.713605
0.713615
0.713615
0.713625
0.713635
0.713646
0.713656
0.713656
0.713666
0.713677
0.713687
0.713698
0.713698
0.713708
0.713718
0.713729
0.713739
0.713739
0.713749
0.71376
0.71377
0.713781
0.713781
0.713791
0.713801
0.713812
0.713822
0.713822
0.713833
0.713843
0.713854
0.713864
0.713864
0.713875
0.713885
0.713895
0.713906
0.713906
0.713916
0.713927
0.713937
0.713948
0.713948
0.713959
0.713969
0.71398
0.71399
0.71399
0.714001
0.714011
0.714022
0.714033
0.714033
0.714043
0.714054
0.714065
0.714075
0.714075
0.714086
0.714096
0.714107
0.714118
0.714118
0.714128
0.714139
0.71415
0.714161
0.714161
0.714171
0.714182
0.714193
0.714203
0.714203
0.714214
0.714225
0.714236
0.714246
0.714246
0.714257
0.714268
0.714279
0.714289
0.714289
0.7143
0.714311
0.714322
0.714333
0.714333
0.714343
0.714354
0.714365
0.714376
0.714376
0.714387
0.714398
0.714408
0.714419
0.714419
0.71443
0.714441
0.714452
0.714463
0.714463
0.714474
0.714484
0.714495
0.714506
0.714506
0.714517
0.714528
0.714539
0.71455
0.71455
0.714561
0.714572
0.714583
0.714594
0.714594
0.714605
0.714616
0.714627
0.714638
0.714638
0.714649
0.71466
0.714671
0.714682
0.714682
0.714693
0.714704
0.714715
0.714726
0.714726
0.714737
0.714748
0.714759
0.71477
0.71477
0.714781
0.714792
0.714803
0.714814
0.714814
0.714825
0.714836
0.714847
0.714859
0.714859
0.71487
0.714881
0.714892
0.714903
0.714903
0.714914
0.714925
0.714937
0.714948
0.714948
0.714959
0.71497
0.714981
0.714992
0.714992
0.715004
0.715015
0.715026
0.715037
0.715037
0.715049
0.71506
0.715071
0.715083
0.715083
0.715094
0.715105
0.715117
0.715128
0.715128
0.715139
0.715151
0.715162
0.715173
0.715173
0.715185
0.715196
0.715207
0.715219
0.715219
0.71523
0.715242
0.715253
0.715264
0.715264
0.715276
0.715287
0.715299
0.71531
0.71531
0.715321
0.715333
0.715344
0.715356
0.715356
0.715367
0.715379
0.71539
0.715402
0.715402
0.715413
0.715425
0.715436
0.715448
0.715448
0.715459
0.715471
0.715482
0.715494
0.715494
0.715505
0.715517
0.715528
0.71554
0.71554
0.715552
0.715563
0.715575
0.715586
0.715586
0.715598
0.71561
0.715621
0.715633
0.715633
0.715644
0.715656
0.715668
0.715679
0.715679
0.715691
0.715703
0.715714
0.715726
0.715726
0.715738
0.715749
0.715761
0.715773
0.715773
0.715784
0.715796
0.715808
0.715819
0.715819
0.715831
0.715843
0.715855
0.715866
0.715866
0.715878
0.71589
0.715902
0.715913
0.715913
0.715925
0.715937
0.715949
0.71596
0.71596
0.715972
0.715984
0.715996
0.716008
0.716008
0.71602
0.716031
0.716043
0.716055
0.716055
0.716067
0.716079
0.716091
0.716103
0.716103
0.716115
0.716127
0.716139
0.716151
0.716151
0.716163
0.716175
0.716187
0.716199
0.716199
0.716211
0.716223
0.716235
0.716247
0.716247
0.716259
0.716271
0.716283
0.716295
0.716295
0.716307
0.716319
0.716331
0.716343
0.716343
0.716355
0.716367
0.716379
0.716391
0.716391
0.716403
0.716415
0.716428
0.71644
0.71644
0.716452
0.716464
0.716476
0.716488
0.716488
0.7165
0.716513
0.716525
0.716537
0.716537
0.716549
0.716561
0.716573
0.716586
0.716586
0.716598
0.71661
0.716622
0.716634
0.716634
0.716647
0.716659
0.716671
0.716683
0.716683
0.716696
0.716708
0.71672
0.716732
0.716732
0.716745
0.716757
0.716769
0.716782
0.716782
0.716794
0.716806
0.716818
0.716831
0.716831
0.716843
0.716855
0.716868
0.71688
0.71688
0.716892
0.716905
0.716917
0.71693
0.71693
0.716942
0.716954
0.716967
0.716979
0.716979
0.716992
0.717004
0.717016
0.717029
0.717029
0.717041
0.717054
0.717066
0.717079
0.717079
0.717091
0.717104
0.717116
0.717129
0.717129
0.717141
0.717154
0.717166
0.717179
0.717179
0.717192
0.717204
0.717217
0.717229
0.717229
0.717242
0.717255
0.717267
0.71728
0.71728
0.717293
0.717305
0.717318
0.71733
0.71733
0.717343
0.717356
0.717368
0.717381
0.717381
0.717394
0.717406
0.717419
0.717432
0.717432
0.717445
0.717457
0.71747
0.717483
0.717483
0.717495
0.717508
0.717521
0.717534
0.717534
0.717546
0.717559
0.717572
0.717585
0.717585
0.717598
0.71761
0.717623
0.717636
0.717636
0.717649
0.717662
0.717674
0.717687
0.717687
0.7177
0.717713
0.717726
0.717739
0.717739
0.717751
0.717764
0.717777
0.71779
0.71779
0.717803
0.717816
0.717829
0.717842
0.717842
0.717855
0.717867
0.71788
0.717893
0.717893
0.717906
0.717919
0.717932
0.717945
0.717945
0.717958
0.717971
0.717984
0.717997
0.717997
0.71801
0.718023
0.718036
0.718049
0.718049
0.718062
0.718075
0.718088
0.718101
0.718101
0.718114
0.718127
0.718141
0.718154
0.718154
0.718167
0.71818
0.718193
0.718206
0.718206
0.718219
0.718233
0.718246
0.718259
0.718259
0.718272
0.718285
0.718299
0.718312
0.718312
0.718325
0.718338
0.718351
0.718365
0.718365
0.718378
0.718391
0.718404
0.718418
0.718418
0.718431
0.718444
0.718457
0.718471
0.718471
0.718484
0.718497
0.718511
0.718524
0.718524
0.718537
0.718551
0.718564
0.718577
0.718577
0.718591
0.718604
0.718617
0.718631
0.718631
0.718644
0.718657
0.718671
0.718684
0.718684
0.718698
0.718711
0.718724
0.718738
0.718738
0.718751
0.718765
0.718778
0.718792
0.718792
0.718805
0.718819
0.718832
0.718845
0.718845
0.718859
0.718872
0.718886
0.718899
0.718899
0.718913
0.718926
0.71894
0.718953
0.718953
0.718967
0.71898
0.718994
0.719008
0.719008
0.719021
0.719035
0.719048
0.719062
0.719062
0.719075
0.719089
0.719103
0.719116
0.719116
0.71913
0.719143
0.719157
0.719171
0.719171
0.719184
0.719198
0.719212
0.719226
0.719226
0.719239
0.719253
0.719267
0.719281
0.719281
0.719294
0.719308
0.719322
0.719336
0.719336
0.719349
0.719363
0.719377
0.719391
0.719391
0.719405
0.719418
0.719432
0.719446
0.719446
0.71946
0.719474
0.719488
0.719501
0.719501
0.719515
0.719529
0.719543
0.719557
0.719557
0.719571
0.719585
0.719599
0.719612
0.719612
0.719626
0.71964
0.719654
0.719668
0.719668
0.719682
0.719696
0.71971
0.719724
0.719724
0.719738
0.719752
0.719766
0.71978
0.71978
0.719794
0.719808
0.719822
0.719836
0.719836
0.71985
0.719864
0.719878
0.719892
0.719892
0.719906
0.71992
0.719934
0.719948
0.719948
0.719962
0.719976
0.71999
0.720004
0.720004
0.720018
0.720033
0.720047
0.720061
0.720061
0.720075
0.720089
0.720103
0.720117
0.720117
0.720131
0.720146
0.72016
0.720174
0.720174
0.720188
0.720202
0.720217
0.720231
0.720231
0.720245
0.720259
0.720274
0.720288
0.720288
0.720302
0.720316
0.720331
0.720345
0.720345
0.720359
0.720374
0.720388
0.720402
0.720402
0.720417
0.720431
0.720445
0.72046
0.72046
0.720474
0.720489
0.720503
0.720517
0.720517
0.720532
0.720546
0.720561
0.720575
0.720575
0.720589
0.720604
0.720618
0.720633
0.720633
0.720647
0.720662
0.720676
0.720691
0.720691
0.720705
0.72072
0.720734
0.720749
0.720749
0.720763
0.720778
0.720792
0.720807
0.720807
0.720821
0.720836
0.72085
0.720865
0.720865
0.720879
0.720894
0.720908
0.720923
0.720923
0.720938
0.720952
0.720967
0.720981
0.720981
0.720996
0.721011
0.721025
0.72104
0.72104
0.721054
0.721069
0.721084
0.721098
0.721098
0.721113
0.721128
0.721142
0.721157
0.721157
0.721172
0.721186
0.721201
0.721216
0.721216
0.721231
0.721245
0.72126
0.721275
0.721275
0.72129
0.721304
0.721319
0.721334
0.721334
0.721349
0.721364
0.721379
0.721393
0.721393
0.721408
0.721423
0.721438
0.721453
0.721453
0.721468
0.721483
0.721498
0.721513
0.721513
0.721527
0.721542
0.721557
0.721572
0.721572
0.721587
0.721602
0.721617
0.721632
0.721632
0.721647
0.721662
0.721677
0.721692
0.721692
0.721707
0.721722
0.721737
0.721752
0.721752
0.721767
0.721782
0.721797
0.721812
0.721812
0.721827
0.721842
0.721857
0.721872
0.721872
0.721887
0.721903
0.721918
0.721933
0.721933
0.721948
0.721963
0.721978
0.721993
0.721993
0.722008
0.722023
0.722039
0.722054
0.722054
0.722069
0.722084
0.722099
0.722114
0.722114
0.722129
0.722145
0.72216
0.722175
0.722175
0.72219
0.722205
0.722221
0.722236
0.722236
0.722251
0.722266
0.722282
0.722297
0.722297
0.722312
0.722327
0.722343
0.722358
0.722358
0.722373
0.722389
0.722404
0.722419
0.722419
0.722435
0.72245
0.722466
0.722481
0.722481
0.722496
0.722512
0.722527
0.722543
0.722543
0.722558
0.722574
0.722589
0.722604
0.722604
0.72262
0.722635
0.722651
0.722666
0.722666
0.722682
0.722697
0.722713
0.722728
0.722728
0.722744
0.722759
0.722775
0.722791
0.722791
0.722806
0.722822
0.722837
0.722853
0.722853
0.722868
0.722884
0.722899
0.722915
0.722915
0.722931
0.722946
0.722962
0.722977
0.722977
0.722993
0.723009
0.723024
0.72304
0.72304
0.723056
0.723071
0.723087
0.723103
0.723103
0.723118
0.723134
0.72315
0.723165
0.723165
0.723181
0.723197
0.723212
0.723228
0.723228
0.723244
0.72326
0.723275
0.723291
0.723291
0.723307
0.723323
0.723338
0.723354
0.723354
0.72337
0.723386
0.723402
0.723417
0.723417
0.723433
0.723449
0.723465
0.723481
0.723481
0.723497
0.723513
0.723529
0.723544
0.723544
0.72356
0.723576
0.723592
0.723608
0.723608
0.723624
0.72364
0.723656
0.723672
0.723672
0.723688
0.723704
0.72372
0.723736
0.723736
0.723752
0.723768
0.723784
0.7238
0.7238
0.723816
0.723832
0.723848
0.723864
0.723864
0.72388
0.723897
0.723913
0.723929
0.723929
0.723945
0.723961
0.723977
0.723993
0.723993
0.724009
0.724025
0.724041
0.724058
0.724058
0.724074
0.72409
0.724106
0.724122
0.724122
0.724138
0.724155
0.724171
0.724187
0.724187
0.724203
0.724219
0.724236
0.724252
0.724252
0.724268
0.724284
0.7243
0.724317
0.724317
0.724333
0.724349
0.724365
0.724382
0.724382
0.724398
0.724414
0.724431
0.724447
0.724447
0.724463
0.724479
0.724496
0.724512
0.724512
0.724529
0.724545
0.724561
0.724578
0.724578
0.724594
0.724611
0.724627
0.724644
0.724644
0.72466
0.724676
0.724693
0.724709
0.724709
0.724726
0.724742
0.724759
0.724775
0.724775
0.724792
0.724808
0.724825
0.724841
0.724841
0.724858
0.724875
0.724891
0.724908
0.724908
0.724924
0.724941
0.724957
0.724974
0.724974
0.724991
0.725007
0.725024
0.72504
0.72504
0.725057
0.725074
0.72509
0.725107
0.725107
0.725124
0.72514
0.725157
0.725173
0.725173
0.72519
0.725207
0.725223
0.72524
0.72524
0.725257
0.725274
0.72529
0.725307
0.725307
0.725324
0.72534
0.725357
0.725374
0.725374
0.725391
0.725407
0.725424
0.725441
0.725441
0.725458
0.725474
0.725491
0.725508
0.725508
0.725525
0.725542
0.725559
0.725575
0.725575
0.725592
0.725609
0.725626
0.725643
0.725643
0.72566
0.725677
0.725694
0.725711
0.725711
0.725728
0.725745
0.725762
0.725779
0.725779
0.725796
0.725813
0.72583
0.725847
0.725847
0.725864
0.725881
0.725898
0.725915
0.725915
0.725932
0.725949
0.725966
0.725983
0.725983
0.726
0.726017
0.726034
0.726051
0.726051
0.726068
0.726085
0.726102
0.72612
0.72612
0.726137
0.726154
0.726171
0.726188
0.726188
0.726205
0.726222
0.72624
0.726257
0.726257
0.726274
0.726291
0.726308
0.726325
0.726325
0.726343
0.72636
0.726377
0.726394
0.726394
0.726411
0.726429
0.726446
0.726463
0.726463
0.72648
0.726498
0.726515
0.726532
0.726532
0.726549
0.726567
0.726584
0.726601
0.726601
0.726619
0.726636
0.726653
0.726671
0.726671
0.726688
0.726705
0.726723
0.72674
0.72674
0.726758
0.726775
0.726793
0.72681
0.72681
0.726827
0.726845
0.726862
0.72688
0.72688
0.726897
0.726915
0.726932
0.72695
0.72695
0.726967
0.726985
0.727002
0.72702
0.72702
0.727038
0.727055
0.727073
0.72709
0.72709
0.727108
0.727125
0.727143
0.727161
0.727161
0.727178
0.727196
0.727213
0.727231
0.727231
0.727249
0.727266
0.727284
0.727301
0.727301
0.727319
0.727337
0.727354
0.727372
0.727372
0.72739
0.727407
0.727425
0.727443
0.727443
0.72746
0.727478
0.727496
0.727514
0.727514
0.727531
0.727549
0.727567
0.727584
0.727584
0.727602
0.72762
0.727638
0.727656
0.727656
0.727673
0.727691
0.727709
0.727727
0.727727
0.727745
0.727762
0.72778
0.727798
0.727798
0.727816
0.727834
0.727852
0.72787
0.72787
0.727888
0.727906
0.727924
0.727942
0.727942
0.72796
0.727978
0.727996
0.728014
0.728014
0.728032
0.72805
0.728068
0.728086
0.728086
0.728104
0.728122
0.72814
0.728158
0.728158
0.728176
0.728194
0.728212
0.72823
0.72823
0.728248
0.728266
0.728284
0.728302
0.728302
0.72832
0.728338
0.728357
0.728375
0.728375
0.728393
0.728411
0.728429
0.728447
0.728447
0.728465
0.728484
0.728502
0.72852
0.72852
0.728538
0.728556
0.728574
0.728593
0.728593
0.728611
0.728629
0.728647
0.728665
0.728665
0.728684
0.728702
0.72872
0.728738
0.728738
0.728757
0.728775
0.728793
0.728812
0.728812
0.72883
0.728848
0.728867
0.728885
0.728885
0.728903
0.728922
0.72894
0.728958
0.728958
0.728977
0.728995
0.729014
0.729032
0.729032
0.729051
0.729069
0.729088
0.729106
0.729106
0.729124
0.729143
0.729161
0.72918
0.72918
0.729198
0.729217
0.729235
0.729254
0.729254
0.729273
0.729291
0.72931
0.729328
0.729328
0.729347
0.729365
0.729384
0.729402
0.729402
0.729421
0.72944
0.729458
0.729477
0.729477
0.729495
0.729514
0.729533
0.729551
0.729551
0.72957
0.729588
0.729607
0.729626
0.729626
0.729644
0.729663
0.729682
0.7297
0.7297
0.729719
0.729738
0.729756
0.729775
0.729775
0.729794
0.729813
0.729831
0.72985
0.72985
0.729869
0.729888
0.729906
0.729925