<?xml version="1.0"?>
<VTKFile type="UnstructuredGrid" version="0.1" byte_order="LittleEndian">
<UnstructuredGrid>
<Piece NumberOfPoints="5000" NumberOfCells="4000">
<PointData Scalars="Reaction 0">
<DataArray type="Float32" Name="Reaction 0" format="ascii">
0.302026
0.302026
0.302026
0.302026
0.302026
0.302026
0.302026
0.302027
0.302027
0.302027
0.302027
0.302027
0.302028
0.302028
0.302028
0.302028
0.302029
0.302029
0.30203
0.30203
0.30203
0.302031
0.302031
0.302032
0.302032
0.302032
0.302033
0.302034
0.302035
0.302035
0.302035
0.302036
0.302037
0.302038
0.302039
0.302039
0.30204
0.30204
0.302041
0.302042
0.302042
0.302044
0.302045
0.302046
0.302047
0.302047
0.302048
0.302049
0.30205
0.302052
0.302052
0.302053
0.302054
0.302056
0.302057
0.302057
0.302059
0.30206
0.302061
0.302063
0.302063
0.302065
0.302066
0.302068
0.302069
0.302069
0.302071
0.302073
0.302075
0.302076
0.302076
0.302078
0.30208
0.302082
0.302084
0.302084
0.302086
0.302088
0.30209
0.302092
0.302092
0.302094
0.302096
0.302098
0.3021
0.3021
0.302102
0.302105
0.302107
0.302109
0.302109
0.302111
0.302114
0.302116
0.302119
0.302119
0.302121
0.302124
0.302126
0.302129
0.302129
0.302131
0.302134
0.302136
0.302139
0.302139
0.302142
0.302145
0.302147
0.30215
0.30215
0.302153
0.302156
0.302159
0.302162
0.302162
0.302165
0.302168
0.302171
0.302174
0.302174
0.302177
0.30218
0.302183
0.302186
0.302186
0.30219
0.302193
0.302196
0.302199
0.302199
0.302203
0.302206
0.302209
0.302213
0.302213
0.302216
0.30222
0.302223
0.302227
0.302227
0.302231
0.302234
0.302238
0.302242
0.302242
0.302245
0.302249
0.302253
0.302257
0.302257
0.302261
0.302265
0.302268
0.302272
0.302272
0.302276
0.30228
0.302284
0.302289
0.302289
0.302293
0.302297
0.302301
0.302305
0.302305
0.302309
0.302314
0.302318
0.302322
0.302322
0.302327
0.302331
0.302336
0.30234
0.30234
0.302345
0.302349
0.302354
0.302358
0.302358
0.302363
0.302368
0.302372
0.302377
0.302377
0.302382
0.302387
0.302391
0.302396
0.302396
0.302401
0.302406
0.302411
0.302416
0.302416
0.302421
0.302426
0.302431
0.302436
0.302436
0.302441
0.302446
0.302452
0.302457
0.302457
0.302462
0.302468
0.302473
0.302478
0.302478
0.302484
0.302489
0.302495
0.3025
0.3025
0.302506
0.302511
0.302517
0.302522
0.302522
0.302528
0.302534
0.302539
0.302545
0.302545
0.302551
0.302557
0.302563
0.302568
0.302568
0.302574
0.30258
0.302586
0.302592
0.302592
0.302598
0.302604
0.30261
0.302617
0.302617
0.302623
0.302629
0.302635
0.302641
0.302641
0.302648
0.302654
0.30266
0.302667
0.302667
0.302673
0.30268
0.302686
0.302693
0.302693
0.302699
0.302706
0.302712
0.302719
0.302719
0.302726
0.302733
0.302739
0.302746
0.302746
0.302753
0.30276
0.302767
0.302773
0.302773
0.30278
0.302787
0.302794
0.302801
0.302801
0.302808
0.302816
0.302823
0.30283
0.30283
0.302837
0.302844
0.302851
0.302859
0.302859
0.302866
0.302873
0.302881
0.302888
0.302888
0.302896
0.302903
0.302911
0.302918
0.302918
0.302926
0.302933
0.302941
0.302949
0.302949
0.302956
0.302964
0.302972
0.30298
0.30298
0.302988
0.302995
0.303003
0.303011
0.303011
0.303019
0.303027
0.303035
0.303043
0.303043
0.303051
0.303059
0.303068
0.303076
0.303076
0.303084
0.303092
0.303101
0.303109
0.303109
0.303117
0.303126
0.303134
0.303142
0.303142
0.303151
0.303159
0.303168
0.303177
0.303177
0.303185
0.303194
0.303202
0.303211
0.303211
0.30322
0.303229
0.303237
0.303246
0.303246
0.303255
0.303264
0.303273
0.303282
0.303282
0.303291
0.3033
0.303309
0.303318
0.303318
0.303327
0.303336
0.303345
0.303355
0.303355
0.303364
0.303373
0.303382
0.303392
0.303392
0.303401
0.30341
0.30342
0.303429
0.303429
0.303439
0.303448
0.303458
0.303468
0.303468
0.303477
0.303487
0.303497
0.303506
0.303506
0.303516
0.303526
0.303536
0.303545
0.303545
0.303555
0.303565
0.303575
0.303585
0.303585
0.303595
0.303605
0.303615
0.303625
0.303625
0.303635
0.303646
0.303656
0.303666
0.303666
0.303676
0.303687
0.303697
0.303707
0.303707
0.303718
0.303728
0.303739
0.303749
0.303749
0.30376
0.30377
0.303781
0.303791
0.303791
0.303802
0.303813
0.303823
0.303834
0.303834
0.303845
0.303856
0.303867
0.303877
0.303877
0.303888
0.303899
0.30391
0.303921
0.303921
0.303932
0.303943
0.303954
0.303966
0.303966
0.303977
0.303988
0.303999
0.30401
0.30401
0.304022
0.304033
0.304044
0.304056
0.304056
0.304067
0.304079
0.30409
0.304102
0.304102
0.304113
0.304125
0.304136
0.304148
0.304148
0.30416
0.304171
0.304183
0.304195
0.304195
0.304207
0.304218
0.30423
0.304242
0.304242
0.304254
0.304266
0.304278
0.30429
0.30429
0.304302
0.304314
0.304326
0.304338
0.304338
0.304351
0.304363
0.304375
0.304387
0.304387
0.3044
0.304412
0.304424
0.304437
0.304437
0.304449
0.304462
0.304474
0.304487
0.304487
0.304499
0.304512
0.304524
0.304537
0.304537
0.30455
0.304563
0.304575
0.304588
0.304588
0.304601
0.304614
0.304627
0.30464
0.30464
0.304652
0.304665
0.304678
0.304692
0.304692
0.304705
0.304718
0.304731
0.304744
0.304744
0.304757
0.30477
0.304784
0.304797
0.304797
0.30481
0.304824
0.304837
0.304851
0.304851
0.304864
0.304877
0.304891
0.304905
0.304905
0.304918
0.304932
0.304945
0.304959
0.304959
0.304973
0.304987
0.305
0.305014
0.305014
0.305028
0.305042
0.305056
0.30507
0.30507
0.305084
0.305098
0.305112
0.305126
0.305126
0.30514
0.305154
0.305168
0.305182
0.305182
0.305197
0.305211
0.305225
0.305239
0.305239
0.305254
0.305268
0.305283
0.305297
0.305297
0.305311
0.305326
0.305341
0.305355
0.305355
0.30537
0.305384
0.305399
0.305414
0.305414
0.305428
0.305443
0.305458
0.305473
0.305473
0.305488
0.305503
0.305518
0.305533
0.305533
0.305547
0.305563
0.305578
0.305593
0.305593
0.305608
0.305623
0.305638
0.305653
0.305653
0.305669
0.305684
0.305699
0.305714
0.305714
0.30573
0.305745
0.305761
0.305776
0.305776
0.305792
0.305807
0.305823
0.305838
0.305838
0.305854
0.30587
0.305885
0.305901
0.305901
0.305917
0.305933
0.305948
0.305964
0.305964
0.30598
0.305996
0.306012
0.306028
0.306028
0.306044
0.30606
0.306076
0.306092
0.306092
0.306108
0.306125
0.306141
0.306157
0.306157
0.306173
0.30619
0.306206
0.306222
0.306222
0.306239
0.306255
0.306271
0.306288
0.306288
0.306304
0.306321
0.306338
0.306354
0.306354
0.306371
0.306388
0.306404
0.306421
0.306421
0.306438
0.306455
0.306471
0.306488
0.306488
0.306505
0.306522
0.306539
0.306556
0.306556
0.306573
0.30659
0.306607
0.306624
0.306624
0.306642
0.306659
0.306676
0.306693
0.306693
0.306711
0.306728
0.306745
0.306763
0.306763
0.30678
0.306797
0.306815
0.306832
0.306832
0.30685
0.306868
0.306885
0.306903
0.306903
0.30692
0.306938
0.306956
0.306974
0.306974
0.306991
0.307009
0.307027
0.307045
0.307045
0.307063
0.307081
0.307099
0.307117
0.307117
0.307135
0.307153
0.307171
0.307189
0.307189
0.307207
0.307226
0.307244
0.307262
0.307262
0.30728
0.307299
0.307317
0.307336
0.307336
0.307354
0.307372
0.307391
0.307409
0.307409
0.307428
0.307447
0.307465
0.307484
0.307484
0.307503
0.307521
0.30754
0.307559
0.307559
0.307578
0.307596
0.307615
0.307634
0.307634
0.307653
0.307672
0.307691
0.30771
0.30771
0.307729
0.307748
0.307768
0.307787
0.307787
0.307806
0.307825
0.307844
0.307864
0.307864
0.307883
0.307902
0.307922
0.307941
0.307941
0.307961
0.30798
0.308
0.308019
0.308019
0.308039
0.308058
0.308078
0.308098
0.308098
0.308117
0.308137
0.308157
0.308177
0.308177
0.308196
0.308216
0.308236
0.308256
0.308256
0.308276
0.308296
0.308316
0.308336
0.308336
0.308356
0.308376
0.308396
0.308417
0.308417
0.308437
0.308457
0.308477
0.308498
0.308498
0.308518
0.308538
0.308559
0.308579
0.308579
0.3086
0.30862
0.308641
0.308661
0.308661
0.308682
0.308703
0.308723
0.308744
0.308744
0.308765
0.308785
0.308806
0.308827
0.308827
0.308848
0.308869
0.30889
0.308911
0.308911
0.308932
0.308953
0.308974
0.308995
0.308995
0.309016
0.309037
0.309058
0.309079
0.309079
0.3091
0.309122
0.309143
0.309164
0.309164
0.309186
0.309207
0.309228
0.30925
0.30925
0.309271
0.309293
0.309314
0.309336
0.309336
0.309358
0.309379
0.309401
0.309423
0.309423
0.309444
0.309466
0.309488
0.30951
0.30951
0.309532
0.309554
0.309575
0.309597
0.309597
0.309619
0.309641
0.309664
0.309686
0.309686
0.309708
0.30973
0.309752
0.309774
0.309774
0.309797
0.309819
0.309841
0.309863
0.309863
0.309886
0.309908
0.309931
0.309953
0.309953
0.309976
0.309998
0.310021
0.310043
0.310043
0.310066
0.310089
0.310111
0.310134
0.310134
0.310157
0.31018
0.310202
0.310225
0.310225
0.310248
0.310271
0.310294
0.310317
0.310317
0.31034
0.310363
0.310386
0.310409
0.310409
0.310432
0.310455
0.310479
0.310502
0.310502
0.310525
0.310548
0.310572
0.310595
0.310595
0.310618
0.310642
0.310665
0.310689
0.310689
0.310712
0.310736
0.310759
0.310783
0.310783
0.310807
0.31083
0.310854
0.310878
0.310878
0.310902
0.310925
0.310949
0.310973
0.310973
0.310997
0.311021
0.311045
0.311069
0.311069
0.311093
0.311117
0.311141
0.311165
0.311165
0.311189
0.311213
0.311238
0.311262
0.311262
0.311286
0.31131
0.311335
0.311359
0.311359
0.311383
0.311408
0.311432
0.311457
0.311457
0.311481
0.311506
0.311531
0.311555
0.311555
0.31158
0.311605
0.311629
0.311654
0.311654
0.311679
0.311704
0.311728
0.311753
0.311753
0.311778
0.311803
0.311828
0.311853
0.311853
0.311878
0.311903
0.311928
0.311953
0.311953
0.311979
0.312004
0.312029
0.312054
0.312054
0.31208
0.312105
0.31213
0.312156
0.312156
0.312181
0.312206
0.312232
0.312257
0.312257
0.312283
0.312309
0.312334
0.31236
0.31236
0.312385
0.312411
0.312437
0.312463
0.312463
0.312488
0.312514
0.31254
0.312566
0.312566
0.312592
0.312618
0.312644
0.31267
0.31267
0.312696
0.312722
0.312748
0.312774
0.312774
0.3128
0.312827
0.312853
0.312879
0.312879
0.312905
0.312932
0.312958
0.312984
0.312984
0.313011
0.313037
0.313064
0.31309
0.31309
0.313117
0.313143
0.31317
0.313197
0.313197
0.313223
0.31325
0.313277
0.313304
0.313304
0.31333
0.313357
0.313384
0.313411
0.313411
0.313438
0.313465
0.313492
0.313519
0.313519
0.313546
0.313573
0.3136
0.313627
0.313627
0.313655
0.313682
0.313709
0.313736
0.313736
0.313764
0.313791
0.313818
0.313846
0.313846
0.313873
0.313901
0.313928
0.313956
0.313956
0.313983
0.314011
0.314038
0.314066
0.314066
0.314094
0.314121
0.314149
0.314177
0.314177
0.314205
0.314233
0.31426
0.314288
0.314288
0.314316
0.314344
0.314372
0.3144
0.3144
0.314428
0.314456
0.314485
0.314513
0.314513
0.314541
0.314569
0.314597
0.314626
0.314626
0.314654
0.314682
0.314711
0.314739
0.314739
0.314768
0.314796
0.314825
0.314853
0.314853
0.314882
0.31491
0.314939
0.314968
0.314968
0.314996
0.315025
0.315054
0.315083
0.315083
0.315111
0.31514
0.315169
0.315198
0.315198
0.315227
0.315256
0.315285
0.315314
0.315314
0.315343
0.315372
0.315401
0.315431
0.315431
0.31546
0.315489
0.315518
0.315548
0.315548
0.315577
0.315606
0.315636
0.315665
0.315665
0.315694
0.315724
0.315753
0.315783
0.315783
0.315813
0.315842
0.315872
0.315902
0.315902
0.315931
0.315961
0.315991
0.316021
0.316021
0.31605
0.31608
0.31611
0.31614
0.31614
0.31617
0.3162
0.31623
0.31626
0.31626
0.31629
0.31632
0.31635
0.316381
0.316381
0.316411
0.316441
0.316471
0.316502
0.316502
0.316532
0.316562
0.316593
0.316623
0.316623
0.316654
0.316684
0.316715
0.316745
0.316745
0.316776
0.316806
0.316837
0.316868
0.316868
0.316898
0.316929
0.31696
0.316991
0.316991
0.317021
0.317052
0.317083
0.317114
0.317114
0.317145
0.317176
0.317207
0.317238
0.317238
0.317269
0.3173
0.317332
0.317363
0.317363
0.317394
0.317425
0.317456
0.317488
0.317488
0.317519
0.31755
0.317582
0.317613
0.317613
0.317645
0.317676
0.317708
0.317739
0.317739
0.317771
0.317803
0.317834
0.317866
0.317866
0.317898
0.317929
0.317961
0.317993
0.317993
0.318025
0.318057
0.318089
0.318121
0.318121
0.318152
0.318184
0.318217
0.318249
0.318249
0.318281
0.318313
0.318345
0.318377
0.318377
0.318409
0.318442
0.318474
0.318506
0.318506
0.318539
0.318571
0.318603
0.318636
0.318636
0.318668
0.318701
0.318733
0.318766
0.318766
0.318798
0.318831
0.318864
0.318896
0.318896
0.318929
0.318962
0.318995
0.319027
0.319027
0.31906
0.319093
0.319126
0.319159
0.319159
0.319192
0.319225
0.319258
0.319291
0.319291
0.319324
0.319357
0.31939
0.319424
0.319424
0.319457
0.31949
0.319523
0.319557
0.319557
0.31959
0.319623
0.319657
0.31969
0.31969
0.319724
0.319757
0.319791
0.319824
0.319824
0.319858
0.319892
0.319925
0.319959
0.319959
0.319993
0.320026
0.32006
0.320094
0.320094
0.320128
0.320162
0.320196
0.32023
0.32023
0.320264
0.320298
0.320332
0.320366
0.320366
0.3204
0.320434
0.320468
0.320502
0.320502
0.320536
0.320571
0.320605
0.320639
0.320639
0.320674
0.320708
0.320742
0.320777
0.320777
0.320811
0.320846
0.32088
0.320915
0.320915
0.32095
0.320984
0.321019
0.321054
0.321054
0.321088
0.321123
0.321158
0.321193
0.321193
0.321227
0.321262
0.321297
0.321332
0.321332
0.321367
0.321402
0.321437
0.321472
0.321472
0.321507
0.321542
0.321578
0.321613
0.321613
0.321648
0.321683
0.321719
0.321754
0.321754
0.321789
0.321825
0.32186
0.321895
0.321895
0.321931
0.321966
0.322002
0.322038
0.322038
0.322073
0.322109
0.322144
0.32218
0.32218
0.322216
0.322252
0.322287
0.322323
0.322323
0.322359
0.322395
0.322431
0.322467
0.322467
0.322503
0.322539
0.322575
0.322611
0.322611
0.322647
0.322683
0.322719
0.322755
0.322755
0.322792
0.322828
0.322864
0.322901
0.322901
0.322937
0.322973
0.32301
0.323046
0.323046
0.323083
0.323119
0.323156
0.323192
0.323192
0.323229
0.323265
0.323302
0.323339
0.323339
0.323375
0.323412
0.323449
0.323486
0.323486
0.323523
0.32356
0.323596
0.323633
0.323633
0.32367
0.323707
0.323744
0.323781
0.323781
0.323819
0.323856
0.323893
0.32393
0.32393
0.323967
0.324004
0.324042
0.324079
0.324079
0.324116
0.324154
0.324191
0.324229
0.324229
0.324266
0.324304
0.324341
0.324379
0.324379
0.324416
0.324454
0.324492
0.324529
0.324529
0.324567
0.324605
0.324642
0.32468
0.32468
0.324718
0.324756
0.324794
0.324832
0.324832
0.32487
0.324908
0.324946
0.324984
0.324984
0.325022
0.32506
0.325098
0.325136
0.325136
0.325175
0.325213
0.325251
0.325289
0.325289
0.325328
0.325366
0.325405
0.325443
0.325443
0.325481
0.32552
0.325558
0.325597
0.325597
0.325636
0.325674
0.325713
0.325752
0.325752
0.32579
0.325829
0.325868
0.325907
0.325907
0.325945
0.325984
0.326023
0.326062
0.326062
0.326101
0.32614
0.326179
0.326218
0.326218
0.326257
0.326296
0.326336
0.326375
0.326375
0.326414
0.326453
0.326492
0.326532
0.326532
0.326571
0.32661
0.32665
0.326689
0.326689
0.326729
0.326768
0.326808
0.326847
0.326847
0.326887
0.326926
0.326966
0.327006
0.327006
0.327045
0.327085
0.327125
0.327165
0.327165
0.327205
0.327244
0.327284
0.327324
0.327324
0.327364
0.327404
0.327444
0.327484
0.327484
0.327524
0.327564
0.327605
0.327645
0.327645
0.327685
0.327725
0.327765
0.327806
0.327806
0.327846
0.327886
0.327927
0.327967
0.327967
0.328008
0.328048
0.328089
0.328129
0.328129
0.32817
0.32821
0.328251
0.328292
0.328292
0.328332
0.328373
0.328414
0.328455
0.328455
0.328496
0.328536
0.328577
0.328618
0.328618
0.328659
0.3287
0.328741
0.328782
0.328782
0.328823
0.328864
0.328905
0.328947
0.328947
0.328988
0.329029
0.32907
0.329112
0.329112
0.329153
0.329194
0.329236
0.329277
0.329277
0.329318
0.32936
0.329401
0.329443
0.329443
0.329484
0.329526
0.329568
0.329609
0.329609
0.329651
0.329693
0.329735
0.329776
0.329776
0.329818
0.32986
0.329902
0.329944
0.329944
0.329986
0.330028
0.33007
0.330112
0.330112
0.330154
0.330196
0.330238
0.33028
0.33028
0.330322
0.330364
0.330407
0.330449
0.330449
0.330491
0.330534
0.330576
0.330618
0.330618
0.330661
0.330703
0.330746
0.330788
0.330788
0.330831
0.330873
0.330916
0.330959
0.330959
0.331001
0.331044
0.331087
0.33113
0.33113
0.331172
0.331215
0.331258
0.331301
0.331301
0.331344
0.331387
0.33143
0.331473
0.331473
0.331516
0.331559
0.331602
0.331645
0.331645
0.331688
0.331732
0.331775
0.331818
0.331818
0.331861
0.331905
0.331948
0.331991
0.331991
0.332035
0.332078
0.332122
0.332165
0.332165
0.332209
0.332252
0.332296
0.33234
0.33234
0.332383
0.332427
0.332471
0.332514
0.332514
0.332558
0.332602
0.332646
0.33269
0.33269
0.332734
0.332778
0.332821
0.332865
0.332865
0.33291
0.332954
0.332998
0.333042
0.333042
0.333086
0.33313
0.333174
0.333219
0.333219
0.333263
0.333307
0.333352
0.333396
0.333396
0.33344
0.333485
0.333529
0.333574
0.333574
0.333618
0.333663
0.333707
0.333752
0.333752
0.333797
0.333841
0.333886
0.333931
0.333931
0.333975
0.33402
0.334065
0.33411
0.33411
0.334155
0.3342
0.334245
0.33429
0.33429
0.334335
0.33438
0.334425
0.33447
0.33447
0.334515
0.33456
0.334605
0.334651
0.334651
0.334696
0.334741
0.334787
0.334832
0.334832
0.334877
0.334923
0.334968
0.335014
0.335014
0.335059
0.335105
0.33515
0.335196
0.335196
0.335241
0.335287
0.335333
0.335379
0.335379
0.335424
0.33547
0.335516
0.335562
0.335562
0.335608
0.335653
0.335699
0.335745
0.335745
0.335791
0.335837
0.335883
0.33593
0.33593
0.335976
0.336022
0.336068
0.336114
0.336114
0.33616
0.336207
0.336253
0.336299
0.336299
0.336346
0.336392
0.336439
0.336485
0.336485
0.336531
0.336578
0.336625
0.336671
0.336671
0.336718
0.336764
0.336811
0.336858
0.336858
0.336904
0.336951
0.336998
0.337045
0.337045
0.337092
0.337139
0.337186
0.337232
0.337232
0.337279
0.337326
0.337373
0.337421
0.337421
0.337468
0.337515
0.337562
0.337609
0.337609
0.337656
0.337704
0.337751
0.337798
0.337798
0.337846
0.337893
0.33794
0.337988
0.337988
0.338035
0.338083
0.33813
0.338178
0.338178
0.338225
0.338273
0.338321
0.338368
0.338368
0.338416
0.338464
0.338512
0.338559
0.338559
0.338607
0.338655
0.338703
0.338751
0.338751
0.338799
0.338847
0.338895
0.338943
0.338943
0.338991
0.339039
0.339087
0.339135
0.339135
0.339184
0.339232
0.33928
0.339328
0.339328
0.339377
0.339425
0.339473
0.339522
0.339522
0.33957
0.339619
0.339667
0.339716
0.339716
0.339764
0.339813
0.339861
0.33991
0.33991
0.339959
0.340008
0.340056
0.340105
0.340105
0.340154
0.340203
0.340252
0.3403
0.3403
0.340349
0.340398
0.340447
0.340496
0.340496
0.340545
0.340595
0.340644
0.340693
0.340693
0.340742
0.340791
0.34084
0.34089
0.34089
0.340939
0.340988
0.341038
0.341087
0.341087
0.341136
0.341186
0.341235
0.341285
0.341285
0.341334
0.341384
0.341434
0.341483
0.341483
0.341533
0.341583
0.341632
0.341682
0.341682
0.341732
0.341782
0.341831
0.341881
0.341881
0.341931
0.341981
0.342031
0.342081
0.342081
0.342131
0.342181
0.342231
0.342281
0.342281
0.342332
0.342382
0.342432
0.342482
0.342482
0.342532
0.342583
0.342633
0.342683
0.342683
0.342734
0.342784
0.342835
0.342885
0.342885
0.342936
0.342986
0.343037
0.343087
0.343087
0.343138
0.343189
0.343239
0.34329
0.34329
0.343341
0.343392
0.343442
0.343493
0.343493
0.343544
0.343595
0.343646
0.343697
0.343697
0.343748
0.343799
0.34385
0.343901
0.343901
0.343952
0.344003
0.344055
0.344106
0.344106
0.344157
0.344208
0.34426
0.344311
0.344311
0.344362
0.344414
0.344465
0.344516
0.344516
0.344568
0.344619
0.344671
0.344723
0.344723
0.344774
0.344826
0.344877
0.344929
0.344929
0.344981
0.345033
0.345084
0.345136
0.345136
0.345188
0.34524
0.345292
0.345344
0.345344
0.345396
0.345448
0.3455
0.345552
0.345552
0.345604
0.345656
0.345708
0.34576
0.34576
0.345813
0.345865
0.345917
0.345969
0.345969
0.346022
0.346074
0.346126
0.346179
0.346179
0.346231
0.346284
0.346336
0.346389
0.346389
0.346441
0.346494
0.346547
0.346599
0.346599
0.346652
0.346705
0.346757
0.34681
0.34681
0.346863
0.346916
0.346969
0.347022
0.347022
0.347075
0.347128
0.347181
0.347234
0.347234
0.347287
0.34734
0.347393
0.347446
0.347446
0.347499
0.347552
0.347606
0.347659
0.347659
0.347712
0.347765
0.347819
0.347872
0.347872
0.347926
0.347979
0.348033
0.348086
0.348086
0.34814
0.348193
0.348247
0.3483
0.3483
0.348354
0.348408
0.348461
0.348515
0.348515
0.348569
0.348623
0.348677
0.34873
0.34873
0.348784
0.348838
0.348892
0.348946
0.348946
0.349
0.349054
0.349108
0.349162
0.349162
0.349217
0.349271
0.349325
0.349379
0.349379
0.349433
0.349488
0.349542
0.349596
0.349596
0.349651
0.349705
0.34976
0.349814
0.349814
0.349869
0.349923
0.349978
0.350032
0.350032
0.350087
0.350141
0.350196
0.350251
0.350251
0.350306
0.35036
0.350415
0.35047
0.35047
0.350525
0.35058
0.350635
0.35069
0.35069
0.350745
0.3508
0.350855
0.35091
0.35091
0.350965
0.35102
0.351075
0.35113
0.35113
0.351185
0.351241
0.351296
0.351351
0.351351
0.351407
0.351462
0.351517
0.351573
0.351573
0.351628
0.351684
0.351739
0.351795
0.351795
0.35185
0.351906
0.351962
0.352017
0.352017
0.352073
0.352129
0.352185
0.35224
0.35224
0.352296
0.352352
0.352408
0.352464
0.352464
0.35252
0.352576
0.352632
0.352688
0.352688
0.352744
0.3528
0.352856
0.352912
0.352912
0.352968
0.353024
0.353081
0.353137
0.353137
0.353193
0.35325
0.353306
0.353362
0.353362
0.353419
0.353475
0.353532
0.353588
0.353588
0.353645
0.353701
0.353758
0.353815
0.353815
0.353871
0.353928
0.353985
0.354041
0.354041
0.354098
0.354155
0.354212
0.354269
0.354269
0.354325
0.354382
0.354439
0.354496
0.354496
0.354553
0.35461
0.354667
0.354725
0.354725
0.354782
0.354839
0.354896
0.354953
0.354953
0.355011
0.355068
0.355125
0.355182
0.355182
0.35524
0.355297
0.355355
0.355412
0.355412
0.35547
0.355527
0.355585
0.355642
0.355642
0.3557
0.355758
0.355815
0.355873
0.355873
0.355931
0.355988
0.356046
0.356104
0.356104
0.356162
0.35622
0.356278
0.356336
0.356336
0.356394
0.356452
0.35651
0.356568
0.356568
0.356626
0.356684
0.356742
0.3568
0.3568
0.356858
0.356917
0.356975
0.357033
0.357033
0.357091
0.35715
0.357208
0.357267
0.357267
0.357325
0.357384
0.357442
0.357501
0.357501
0.357559
0.357618
0.357676
0.357735
0.357735
0.357794
0.357852
0.357911
0.35797
0.35797
0.358029
0.358088
0.358146
0.358205
0.358205
0.358264
0.358323
0.358382
0.358441
0.358441
0.3585
0.358559
0.358618
0.358678
0.358678
0.358737
0.358796
0.358855
0.358914
0.358914
0.358974
0.359033
0.359092
0.359152
0.359152
0.359211
0.35927
0.35933
0.359389
0.359389
0.359449
0.359508
0.359568
0.359628
0.359628
0.359687
0.359747
0.359807
0.359866
0.359866
0.359926
0.359986
0.360046
0.360105
0.360105
0.360165
0.360225
0.360285
0.360345
0.360345
0.360405
0.360465
0.360525
0.360585
0.360585
0.360645
0.360705
0.360766
0.360826
0.360826
0.360886
0.360946
0.361007
0.361067
0.361067
0.361127
0.361188
0.361248
0.361308
0.361308
0.361369
0.361429
0.36149
0.36155
0.36155
0.361611
0.361672
0.361732
0.361793
0.361793
0.361854
0.361914
0.361975
0.362036
0.362036
0.362097
0.362158
0.362218
0.362279
0.362279
0.36234
0.362401
0.362462
0.362523
0.362523
0.362584
0.362645
0.362707
0.362768
0.362768
0.362829
0.36289
0.362951
0.363013
0.363013
0.363074
0.363135
0.363196
0.363258
0.363258
0.363319
0.363381
0.363442
0.363504
0.363504
0.363565
0.363627
0.363688
0.36375
0.36375
0.363812
0.363873
0.363935
0.363997
0.363997
0.364058
0.36412
0.364182
0.364244
0.364244
0.364306
0.364368
0.36443
0.364492
0.364492
0.364554
0.364616
0.364678
0.36474
0.36474
0.364802
0.364864
0.364926
0.364988
0.364988
0.365051
0.365113
0.365175
0.365237
0.365237
0.3653
0.365362
0.365425
0.365487
0.365487
0.365549
0.365612
0.365674
0.365737
0.365737
0.3658
0.365862
0.365925
0.365988
0.365988
0.36605
0.366113
0.366176
0.366239
0.366239
0.366301
0.366364
0.366427
0.36649
0.36649
0.366553
0.366616
0.366679
0.366742
0.366742
0.366805
0.366868
0.366931
0.366994
0.366994
0.367057
0.367121
0.367184
0.367247
0.367247
0.36731
0.367374
0.367437
0.3675
0.3675
0.367564
0.367627
0.367691
0.367754
0.367754
0.367818
0.367881
0.367945
0.368008
0.368008
0.368072
0.368136
0.368199
0.368263
0.368263
0.368327
0.368391
0.368455
0.368518
0.368518
0.368582
0.368646
0.36871
0.368774
0.368774
0.368838
0.368902
0.368966
0.36903
0.36903
0.369094
0.369158
0.369223
0.369287
0.369287
0.369351
0.369415
0.36948
0.369544
0.369544
0.369608
0.369673
0.369737
0.369801
0.369801
0.369866
0.36993
0.369995
0.370059
0.370059
0.370124
0.370189
0.370253
0.370318
0.370318
0.370383
0.370447
0.370512
0.370577
0.370577
0.370642
0.370706
0.370771
0.370836
0.370836
0.370901
0.370966
0.371031
0.371096
0.371096
0.371161
0.371226
0.371291
0.371356
0.371356
0.371422
0.371487
0.371552
0.371617
0.371617
0.371682
0.371748
0.371813
0.371878
0.371878
0.371944
0.372009
0.372075
0.37214
0.37214
0.372206
0.372271
0.372337
0.372402
0.372402
0.372468
0.372534
0.372599
0.372665
0.372665
0.372731
0.372797
0.372862
0.372928
0.372928
0.372994
0.37306
0.373126
0.373192
0.373192
0.373258
0.373324
0.37339
0.373456
0.373456
0.373522
0.373588
0.373654
0.37372
0.37372
0.373787
0.373853
0.373919
0.373985
0.373985
0.374052
0.374118
0.374184
0.374251
0.374251
0.374317
0.374384
0.37445
0.374517
0.374517
0.374583
0.37465
0.374717
0.374783
0.374783
0.37485
0.374917
0.374983
0.37505
0.37505
0.375117
0.375184
0.37525
0.375317
0.375317
0.375384
0.375451
0.375518
0.375585
0.375585
0.375652
0.375719
0.375786
0.375853
0.375853
0.37592
0.375988
0.376055
0.376122
0.376122
0.376189
0.376257
0.376324
0.376391
0.376391
0.376459
0.376526
0.376593
0.376661
0.376661
0.376728
0.376796
0.376863
0.376931
0.376931
0.376998
0.377066
0.377134
0.377201
0.377201
0.377269
0.377337
0.377405
0.377472
0.377472
0.37754
0.377608
0.377676
0.377744
0.377744
0.377812
0.37788
0.377948
0.378016
0.378016
0.378084
0.378152
0.37822
0.378288
0.378288
0.378356
0.378425
0.378493
0.378561
0.378561
0.378629
0.378698
0.378766
0.378834
0.378834
0.378903
0.378971
0.37904
0.379108
0.379108
0.379177
0.379245
0.379314
0.379382
0.379382
0.379451
0.37952
0.379588
0.379657
0.379657
0.379726
0.379795
0.379864
0.379932
0.379932
0.380001
0.38007
0.380139
0.380208
0.380208
0.380277
0.380346
0.380415
0.380484
0.380484
0.380553
0.380622
0.380691
0.380761
0.380761
0.38083
0.380899
0.380968
0.381038
0.381038
0.381107
0.381176
0.381246
0.381315
0.381315
0.381384
0.381454
0.381523
0.381593
0.381593
0.381663
0.381732
0.381802
0.381871
0.381871
0.381941
0.382011
0.38208
0.38215
0.38215
0.38222
0.38229
0.38236
0.38243
0.38243
0.382499
0.382569
0.382639
0.382709
0.382709
0.382779
0.382849
0.382919
0.382989
0.382989
0.38306
0.38313
0.3832
0.38327
0.38327
0.38334
0.383411
0.383481
0.383551
0.383551
0.383622
0.383692
0.383762
0.383833
0.383833
0.383903
0.383974
0.384044
0.384115
0.384115
0.384186
0.384256
0.384327
0.384397
0.384397
0.384468
0.384539
0.38461
0.38468
0.38468
0.384751
0.384822
0.384893
0.384964
0.384964
0.385035
0.385106
0.385177
0.385248
0.385248
0.385319
0.38539
0.385461
0.385532
0.385532
0.385603
0.385674
0.385746
0.385817
0.385817
0.385888
0.385959
0.386031
0.386102
0.386102
0.386173
0.386245
0.386316
0.386388
0.386388
0.386459
0.386531
0.386602
0.386674
0.386674
0.386746
0.386817
0.386889
0.386961
0.386961
0.387032
0.387104
0.387176
0.387248
0.387248
0.387319
0.387391
0.387463
0.387535
0.387535
0.387607
0.387679
0.387751
0.387823
0.387823
0.387895
0.387967
0.388039
0.388112
0.388112
0.388184
0.388256
0.388328
0.3884
0.3884
0.388473
0.388545
0.388617
0.38869
0.38869
0.388762
0.388835
0.388907
0.38898
0.38898
0.389052
0.389125
0.389197
0.38927
0.38927
0.389342
0.389415
0.389488
0.38956
0.38956
0.389633
0.389706
0.389779
0.389852
0.389852
0.389924
0.389997
0.39007
0.390143
0.390143
0.390216
0.390289
0.390362
0.390435
0.390435
0.390508
0.390582
0.390655
0.390728
0.390728
0.390801
0.390874
0.390948
0.391021
0.391021
0.391094
0.391167
0.391241
0.391314
0.391314
0.391388
0.391461
0.391535
0.391608
0.391608
0.391682
0.391755
0.391829
0.391902
0.391902
0.391976
0.39205
0.392123
0.392197
0.392197
0.392271
0.392345
0.392419
0.392492
0.392492
0.392566
0.39264
0.392714
0.392788
0.392788
0.392862
0.392936
0.39301
0.393084
0.393084
0.393158
0.393232
0.393307
0.393381
0.393381
0.393455
0.393529
0.393604
0.393678
0.393678
0.393752
0.393827
0.393901
0.393975
0.393975
0.39405
0.394124
0.394199
0.394273
0.394273
0.394348
0.394422
0.394497
0.394572
0.394572
0.394646
0.394721
0.394796
0.39487
0.39487
0.394945
0.39502
0.395095
0.39517
0.39517
0.395245
0.39532
0.395395
0.39547
0.39547
0.395545
0.39562
0.395695
0.39577
0.39577
0.395845
0.39592
0.395995
0.39607
0.39607
0.396146
0.396221
0.396296
0.396371
0.396371
0.396447
0.396522
0.396598
0.396673
0.396673
0.396748
0.396824
0.396899
0.396975
0.396975
0.39705
0.397126
0.397202
0.397277
0.397277
0.397353
0.397429
0.397504
0.39758
0.39758
0.397656
0.397732
0.397808
0.397884
0.397884
0.397959
0.398035
0.398111
0.398187
0.398187
0.398263
0.398339
0.398415
0.398492
0.398492
0.398568
0.398644
0.39872
0.398796
0.398796
0.398872
0.398949
0.399025
0.399101
0.399101
0.399178
0.399254
0.39933
0.399407
0.399407
0.399483
0.39956
0.399636
0.399713
0.399713
0.399789
0.399866
0.399943
0.400019
0.400019
0.400096
0.400173
0.400249
0.400326
0.400326
0.400403
0.40048
0.400557
0.400634
0.400634
0.40071
0.400787
0.400864
0.400941
0.400941
0.401018
0.401095
0.401173
0.40125
0.40125
0.401327
0.401404
0.401481
0.401558
0.401558
0.401636
0.401713
0.40179
0.401867
0.401867
0.401945
0.402022
0.4021
0.402177
0.402177
0.402254
0.402332
0.402409
0.402487
0.402487
0.402565
0.402642
0.40272
0.402797
0.402797
0.402875
0.402953
0.403031
0.403108
0.403108
0.403186
0.403264
0.403342
0.40342
0.40342
0.403498
0.403576
0.403654
0.403732
0.403732
0.40381
0.403888
0.403966
0.404044
0.404044
0.404122
0.4042
0.404278
0.404356
0.404356
0.404435
0.404513
0.404591
0.40467
0.40467
0.404748
0.404826
0.404905
0.404983
0.404983
0.405062
0.40514
0.405219
0.405297
0.405297
0.405376
0.405454
0.405533
0.405612
0.405612
0.40569
0.405769
0.405848
0.405926
0.405926
0.406005
0.406084
0.406163
0.406242
0.406242
0.406321
0.4064
0.406479
0.406558
0.406558
0.406637
0.406716
0.406795
0.406874
0.406874
0.406953
0.407032
0.407111
0.40719
0.40719
0.40727
0.407349
0.407428
0.407508
0.407508
0.407587
0.407666
0.407746
0.407825
0.407825
0.407905
0.407984
0.408064
0.408143
0.408143
0.408223
0.408302
0.408382
0.408462
0.408462
0.408541
0.408621
0.408701
0.40878
0.40878
0.40886
0.40894
0.40902
0.4091
0.4091
0.40918
0.40926
0.409339
0.409419
0.409419
0.409499
0.409579
0.40966
0.40974
0.40974
0.40982
0.4099
0.40998
0.41006
0.41006
0.41014
0.410221
0.410301
0.410381
0.410381
0.410462
0.410542
0.410622
0.410703
0.410703
0.410783
0.410864
0.410944
0.411025
0.411025
0.411105
0.411186
0.411267
0.411347
0.411347
0.411428
0.411508
0.411589
0.41167
0.41167
0.411751
0.411832
0.411912
0.411993
0.411993
0.412074
0.412155
0.412236
0.412317
0.412317
0.412398
0.412479
0.41256
0.412641
0.412641
0.412722
0.412803
0.412884
0.412966
0.412966
0.413047
0.413128
0.413209
0.413291
0.413291
0.413372
0.413453
0.413535
0.413616
0.413616
0.413697
0.413779
0.41386
0.413942
0.413942
0.414023
0.414105
0.414187
0.414268
0.414268
0.41435