<?xml version="1.0"?>
<VTKFile type="UnstructuredGrid" version="0.1" byte_order="LittleEndian">
<UnstructuredGrid>
<Piece NumberOfPoints="5000" NumberOfCells="4000">
<PointData Scalars="Reaction 0">
<DataArray type="Float32" Name="Reaction 0" format="ascii">
0.931804
0.931804
0.931804
0.931804
0.931804
0.931804
0.931804
0.931804
0.931804
0.931804
0.931804
0.931804
0.931804
0.931804
0.931804
0.931804
0.931804
0.931804
0.931804
0.931804
0.931804
0.931804
0.931804
0.931804
0.931804
0.931804
0.931804
0.931804
0.931804
0.931804
0.931804
0.931804
0.931804
0.931804
0.931804
0.931804
0.931804
0.931804
0.931804
0.931804
0.931804
0.931805
0.931805
0.931805
0.931805
0.931805
0.931805
0.931805
0.931805
0.931805
0.931805
0.931805
0.931805
0.931805
0.931805
0.931805
0.931805
0.931805
0.931805
0.931805
0.931805
0.931805
0.931805
0.931805
0.931805
0.931805
0.931805
0.931805
0.931805
0.931805
0.931805
0.931805
0.931805
0.931806
0.931806
0.931806
0.931806
0.931806
0.931806
0.931806
0.931806
0.931806
0.931806
0.931806
0.931806
0.931806
0.931806
0.931806
0.931806
0.931806
0.931806
0.931806
0.931806
0.931806
0.931806
0.931806
0.931807
0.931807
0.931807
0.931807
0.931807
0.931807
0.931807
0.931807
0.931807
0.931807
0.931807
0.931807
0.931807
0.931807
0.931807
0.931807
0.931807
0.931808
0.931808
0.931808
0.931808
0.931808
0.931808
0.931808
0.931808
0.931808
0.931808
0.931808
0.931808
0.931808
0.931808
0.931808
0.931809
0.931809
0.931809
0.931809
0.931809
0.931809
0.931809
0.931809
0.931809
0.931809
0.931809
0.931809
0.931809
0.931809
0.93181
0.93181
0.93181
0.93181
0.93181
0.93181
0.93181
0.93181
0.93181
0.93181
0.93181
0.93181
0.931811
0.931811
0.931811
0.931811
0.931811
0.931811
0.931811
0.931811
0.931811
0.931811
0.931811
0.931811
0.931811
0.931812
0.931812
0.931812
0.931812
0.931812
0.931812
0.931812
0.931812
0.931812
0.931812
0.931813
0.931813
0.931813
0.931813
0.931813
0.931813
0.931813
0.931813
0.931813
0.931813
0.931814
0.931814
0.931814
0.931814
0.931814
0.931814
0.931814
0.931814
0.931814
0.931814
0.931815
0.931815
0.931815
0.931815
0.931815
0.931815
0.931815
0.931815
0.931815
0.931816
0.931816
0.931816
0.931816
0.931816
0.931816
0.931816
0.931816
0.931816
0.931816
0.931817
0.931817
0.931817
0.931817
0.931817
0.931817
0.931817
0.931818
0.931818
0.931818
0.931818
0.931818
0.931818
0.931818
0.931818
0.931818
0.931819
0.931819
0.931819
0.931819
0.931819
0.931819
0.931819
0.93182
0.93182
0.93182
0.93182
0.93182
0.93182
0.93182
0.93182
0.931821
0.931821
0.931821
0.931821
0.931821
0.931821
0.931821
0.931822
0.931822
0.931822
0.931822
0.931822
0.931822
0.931822
0.931822
0.931823
0.931823
0.931823
0.931823
0.931823
0.931823
0.931823
0.931824
0.931824
0.931824
0.931824
0.931824
0.931824
0.931824
0.931825
0.931825
0.931825
0.931825
0.931825
0.931825
0.931826
0.931826
0.931826
0.931826
0.931826
0.931826
0.931826
0.931827
0.931827
0.931827
0.931827
0.931827
0.931827
0.931827
0.931828
0.931828
0.931828
0.931828
0.931828
0.931828
0.931829
0.931829
0.931829
0.931829
0.931829
0.931829
0.93183
0.93183
0.93183
0.93183
0.93183
0.931831
0.931831
0.931831
0.931831
0.931831
0.931831
0.931832
0.931832
0.931832
0.931832
0.931832
0.931832
0.931832
0.931833
0.931833
0.931833
0.931833
0.931833
0.931834
0.931834
0.931834
0.931834
0.931834
0.931834
0.931835
0.931835
0.931835
0.931835
0.931835
0.931836
0.931836
0.931836
0.931836
0.931836
0.931837
0.931837
0.931837
0.931837
0.931837
0.931837
0.931838
0.931838
0.931838
0.931838
0.931838
0.931839
0.931839
0.931839
0.931839
0.931839
0.93184
0.93184
0.93184
0.93184
0.93184
0.931841
0.931841
0.931841
0.931841
0.931841
0.931842
0.931842
0.931842
0.931842
0.931842
0.931843
0.931843
0.931843
0.931843
0.931843
0.931844
0.931844
0.931844
0.931844
0.931844
0.931845
0.931845
0.931845
0.931845
0.931846
0.931846
0.931846
0.931846
0.931846
0.931847
0.931847
0.931847
0.931847
0.931847
0.931848
0.931848
0.931848
0.931848
0.931848
0.931849
0.931849
0.931849
0.931849
0.93185
0.93185
0.93185
0.93185
0.93185
0.931851
0.931851
0.931851
0.931852
0.931852
0.931852
0.931852
0.931852
0.931853
0.931853
0.931853
0.931853
0.931854
0.931854
0.931854
0.931854
0.931854
0.931855
0.931855
0.931855
0.931855
0.931856
0.931856
0.931856
0.931856
0.931856
0.931857
0.931857
0.931857
0.931857
0.931858
0.931858
0.931858
0.931859
0.931859
0.931859
0.931859
0.931859
0.93186
0.93186
0.93186
0.93186
0.931861
0.931861
0.931861
0.931861
0.931862
0.931862
0.931862
0.931862
0.931863
0.931863
0.931863
0.931863
0.931863
0.931864
0.931864
0.931864
0.931865
0.931865
0.931865
0.931865
0.931866
0.931866
0.931866
0.931866
0.931867
0.931867
0.931867
0.931867
0.931868
0.931868
0.931868
0.931869
0.931869
0.931869
0.931869
0.93187
0.93187
0.93187
0.93187
0.931871
0.931871
0.931871
0.931871
0.931872
0.931872
0.931872
0.931873
0.931873
0.931873
0.931873
0.931874
0.931874
0.931874
0.931874
0.931875
0.931875
0.931875
0.931875
0.931876
0.931876
0.931876
0.931877
0.931877
0.931877
0.931877
0.931878
0.931878
0.931878
0.931879
0.931879
0.931879
0.93188
0.93188
0.93188
0.93188
0.931881
0.931881
0.931881
0.931881
0.931882
0.931882
0.931882
0.931882
0.931883
0.931883
0.931884
0.931884
0.931884
0.931884
0.931885
0.931885
0.931885
0.931885
0.931886
0.931886
0.931887
0.931887
0.931887
0.931887
0.931888
0.931888
0.931888
0.931888
0.931889
0.931889
0.931889
0.93189
0.93189
0.93189
0.931891
0.931891
0.931891
0.931891
0.931892
0.931892
0.931893
0.931893
0.931893
0.931893
0.931894
0.931894
0.931894
0.931894
0.931895
0.931895
0.931896
0.931896
0.931896
0.931896
0.931897
0.931897
0.931898
0.931898
0.931898
0.931898
0.931899
0.931899
0.931899
0.931899
0.9319
0.9319
0.931901
0.931901
0.931901
0.931901
0.931902
0.931902
0.931902
0.931903
0.931903
0.931903
0.931904
0.931904
0.931904
0.931905
0.931905
0.931905
0.931905
0.931906
0.931906
0.931907
0.931907
0.931907
0.931908
0.931908
0.931908
0.931909
0.931909
0.931909
0.93191
0.93191
0.931911
0.931911
0.931911
0.931911
0.931912
0.931912
0.931912
0.931913
0.931913
0.931914
0.931914
0.931914
0.931914
0.931915
0.931915
0.931916
0.931916
0.931916
0.931917
0.931917
0.931918
0.931918
0.931918
0.931918
0.931919
0.931919
0.931919
0.93192
0.93192
0.931921
0.931921
0.931921
0.931922
0.931922
0.931922
0.931923
0.931923
0.931923
0.931924
0.931924
0.931925
0.931925
0.931925
0.931926
0.931926
0.931926
0.931926
0.931927
0.931927
0.931928
0.931928
0.931928
0.931929
0.931929
0.93193
0.93193
0.93193
0.931931
0.931931
0.931932
0.931932
0.931932
0.931932
0.931933
0.931933
0.931934
0.931934
0.931934
0.931935
0.931935
0.931936
0.931936
0.931936
0.931937
0.931937
0.931938
0.931938
0.931938
0.931939
0.931939
0.93194
0.93194
0.93194
0.93194
0.931941
0.931941
0.931941
0.931942
0.931942
0.931943
0.931943
0.931943
0.931944
0.931944
0.931945
0.931945
0.931945
0.931946
0.931946
0.931947
0.931947
0.931947
0.931948
0.931948
0.931949
0.931949
0.931949
0.93195
0.93195
0.931951
0.931951
0.931951
0.931952
0.931952
0.931953
0.931953
0.931953
0.931954
0.931954
0.931955
0.931955
0.931955
0.931956
0.931956
0.931957
0.931957
0.931957
0.931958
0.931958
0.931959
0.931959
0.931959
0.93196
0.93196
0.931961
0.931961
0.931961
0.931962
0.931962
0.931963
0.931963
0.931963
0.931964
0.931964
0.931965
0.931965
0.931965
0.931966
0.931966
0.931967
0.931968
0.931968
0.931968
0.931969
0.931969
0.93197
0.93197
0.93197
0.931971
0.931971
0.931972
0.931972
0.931972
0.931973
0.931973
0.931974
0.931974
0.931974
0.931975
0.931975
0.931976
0.931976
0.931977
0.931977
0.931978
0.931978
0.931978
0.931979
0.931979
0.93198
0.93198
0.93198
0.931981
0.931981
0.931982
0.931983
0.931983
0.931983
0.931984
0.931984
0.931985
0.931985
0.931985
0.931986
0.931986
0.931987
0.931987
0.931987
0.931988
0.931989
0.931989
0.931989
0.93199
0.93199
0.931991
0.931991
0.931991
0.931992
0.931992
0.931993
0.931994
0.931994
0.931994
0.931995
0.931995
0.931996
0.931996
0.931996
0.931997
0.931998
0.931998
0.931998
0.931999
0.931999
0.932
0.932
0.932
0.932001
0.932002
0.932002
0.932003
0.932003
0.932003
0.932004
0.932004
0.932005
0.932005
0.932006
0.932006
0.932007
0.932007
0.932007
0.932008
0.932009
0.932009
0.93201
0.93201
0.93201
0.932011
0.932011
0.932012
0.932012
0.932013
0.932013
0.932014
0.932014
0.932014
0.932015
0.932016
0.932016
0.932017
0.932017
0.932017
0.932018
0.932019
0.932019
0.932019
0.93202
0.93202
0.932021
0.932022
0.932022
0.932022
0.932023
0.932023
0.932024
0.932024
0.932025
0.932025
0.932026
0.932026
0.932026
0.932027
0.932028
0.932028
0.932029
0.932029
0.93203
0.93203
0.932031
0.932031
0.932031
0.932032
0.932033
0.932033
0.932034
0.932034
0.932034
0.932035
0.932036
0.932036
0.932036
0.932037
0.932038
0.932038
0.932039
0.932039
0.932039
0.93204
0.932041
0.932041
0.932041
0.932042
0.932043
0.932043
0.932044
0.932044
0.932044
0.932045
0.932046
0.932046
0.932046
0.932047
0.932048
0.932048
0.932049
0.932049
0.93205
0.93205
0.932051
0.932052
0.932052
0.932052
0.932053
0.932053
0.932054
0.932054
0.932055
0.932055
0.932056
0.932057
0.932057
0.932057
0.932058
0.932059
0.932059
0.932059
0.93206
0.932061
0.932061
0.932062
0.932062
0.932063
0.932063
0.932064
0.932065
0.932065
0.932065
0.932066
0.932067
0.932067
0.932067
0.932068
0.932069
0.932069
0.93207
0.93207
0.932071
0.932071
0.932072
0.932073
0.932073
0.932073
0.932074
0.932075
0.932075
0.932075
0.932076
0.932077
0.932077
0.932078
0.932078
0.932079
0.932079
0.93208
0.932081
0.932081
0.932081
0.932082
0.932083
0.932083
0.932083
0.932084
0.932085
0.932085
0.932086
0.932086
0.932087
0.932087
0.932088
0.932089
0.932089
0.93209
0.93209
0.932091
0.932092
0.932092
0.932092
0.932093
0.932094
0.932094
0.932094
0.932095
0.932096
0.932096
0.932097
0.932097
0.932098
0.932099
0.932099
0.9321
0.9321
0.932101
0.932101
0.932102
0.932103
0.932103
0.932103
0.932104
0.932105
0.932106
0.932106
0.932106
0.932107
0.932108
0.932108
0.932108
0.932109
0.93211
0.93211
0.932111
0.932111
0.932112
0.932113
0.932113
0.932114
0.932114
0.932115
0.932115
0.932116
0.932117
0.932117
0.932118
0.932118
0.932119
0.93212
0.93212
0.93212
0.932121
0.932122
0.932123
0.932123
0.932123
0.932124
0.932125
0.932125
0.932125
0.932126
0.932127
0.932128
0.932128
0.932128
0.932129
0.93213
0.93213
0.932131
0.932131
0.932132
0.932133
0.932133
0.932134
0.932134
0.932135
0.932136
0.932136
0.932137
0.932137
0.932138
0.932139
0.932139
0.93214
0.93214
0.932141
0.932142
0.932143
0.932143
0.932143
0.932144
0.932145
0.932146
0.932146
0.932146
0.932147
0.932148
0.932149
0.932149
0.932149
0.93215
0.932151
0.932152
0.932153
0.932153
0.932153
0.932154
0.932155
0.932156
0.932156
0.932156
0.932157
0.932158
0.932159
0.932159
0.932159
0.93216
0.932161
0.932162
0.932162
0.932163
0.932163
0.932164
0.932165
0.932165
0.932166
0.932166
0.932167
0.932168
0.932168
0.932169
0.93217
0.93217
0.932171
0.932171
0.932172
0.932173
0.932174
0.932174
0.932174
0.932175
0.932176
0.932177
0.932177
0.932177
0.932178
0.932179
0.93218
0.932181
0.932181
0.932181
0.932182
0.932183
0.932184
0.932184
0.932185
0.932185
0.932186
0.932187
0.932187
0.932188
0.932189
0.932189
0.93219
0.93219
0.932191
0.932192
0.932193
0.932193
0.932193
0.932194
0.932195
0.932196
0.932197
0.932197
0.932197
0.932198
0.932199
0.9322
0.9322
0.932201
0.932202
0.932202
0.932203
0.932203
0.932204
0.932205
0.932206
0.932206
0.932206
0.932207
0.932208
0.932209
0.93221
0.93221
0.932211
0.932211
0.932212
0.932213
0.932213
0.932214
0.932215
0.932215
0.932216
0.932216
0.932217
0.932218
0.932219
0.93222
0.93222
0.93222
0.932221
0.932222
0.932223
0.932223
0.932224
0.932225
0.932225
0.932226
0.932226
0.932227
0.932228
0.932229
0.93223
0.93223
0.932231
0.932231
0.932232
0.932233
0.932233
0.932234
0.932235
0.932236
0.932236
0.932236
0.932237
0.932238
0.932239
0.93224
0.93224
0.932241
0.932242
0.932242
0.932243
0.932243
0.932244
0.932245
0.932246
0.932247
0.932247
0.932248
0.932248
0.932249
0.93225
0.93225
0.932251
0.932252
0.932253
0.932254
0.932254
0.932254
0.932255
0.932256
0.932257
0.932257
0.932258
0.932259
0.93226
0.93226
0.93226
0.932261
0.932262
0.932263
0.932264
0.932264
0.932265
0.932266
0.932267
0.932267
0.932267
0.932268
0.932269
0.93227
0.932271
0.932271
0.932272
0.932273
0.932274
0.932275
0.932275
0.932275
0.932276
0.932277
0.932278
0.932278
0.932279
0.93228
0.932281
0.932282
0.932282
0.932283
0.932283
0.932284
0.932285
0.932285
0.932286
0.932287
0.932288
0.932289
0.932289
0.93229
0.932291
0.932291
0.932292
0.932292
0.932293
0.932294
0.932295
0.932296
0.932296
0.932297
0.932298
0.932299
0.9323
0.9323
0.932301
0.932301
0.932302
0.932303
0.932303
0.932304
0.932305
0.932306
0.932307
0.932307
0.932308
0.932309
0.93231
0.932311
0.932311
0.932311
0.932312
0.932313
0.932314
0.932314
0.932315
0.932316
0.932317
0.932318
0.932318
0.932319
0.93232
0.932321
0.932322
0.932322
0.932322
0.932323
0.932324
0.932325
0.932325
0.932326
0.932327
0.932328
0.932329
0.932329
0.93233
0.932331
0.932332
0.932333
0.932333
0.932334
0.932334
0.932335
0.932336
0.932336
0.932337
0.932338
0.932339
0.93234
0.93234
0.932341
0.932342
0.932343
0.932344
0.932344
0.932345
0.932346
0.932346
0.932347
0.932347
0.932348
0.932349
0.93235
0.932351
0.932351
0.932352
0.932353
0.932354
0.932355
0.932355
0.932356
0.932357
0.932358
0.932359
0.932359
0.93236
0.932361
0.932362
0.932363
0.932363
0.932364
0.932365
0.932365
0.932366
0.932366
0.932367
0.932368
0.932369
0.93237
0.93237
0.932371
0.932372
0.932373
0.932374
0.932374
0.932375
0.932376
0.932377
0.932378
0.932378
0.932379
0.93238
0.932381
0.932382
0.932382
0.932383
0.932384
0.932385
0.932386
0.932386
0.932387
0.932388
0.932389
0.93239
0.93239
0.932391
0.932392
0.932393
0.932394
0.932394
0.932395
0.932396
0.932397
0.932398
0.932398
0.932399
0.9324
0.932401
0.932402
0.932402
0.932403
0.932404
0.932405
0.932406
0.932406
0.932407
0.932408
0.932409
0.93241
0.93241
0.932411
0.932412
0.932413
0.932414
0.932414
0.932415
0.932416
0.932417
0.932418
0.932418
0.932419
0.93242
0.932421
0.932422
0.932422
0.932423
0.932424
0.932425
0.932426
0.932426
0.932427
0.932428
0.932429
0.93243
0.93243
0.932432
0.932433
0.932434
0.932435
0.932435
0.932436
0.932437
0.932438
0.932439
0.932439
0.93244
0.932441
0.932442
0.932443
0.932443
0.932444
0.932445
0.932446
0.932447
0.932447
0.932448
0.932449
0.93245
0.932451
0.932451
0.932452
0.932453
0.932454
0.932455
0.932455
0.932456
0.932457
0.932458
0.932459
0.932459
0.93246
0.932461
0.932462
0.932463
0.932463
0.932465
0.932466
0.932467
0.932468
0.932468
0.932469
0.93247
0.932471
0.932472
0.932472
0.932473
0.932474
0.932475
0.932476
0.932476
0.932477
0.932478
0.932479
0.93248
0.93248
0.932481
0.932482
0.932483
0.932485
0.932485
0.932486
0.932487
0.932488
0.932489
0.932489
0.93249
0.932491
0.932492
0.932493
0.932493
0.932494
0.932495
0.932496
0.932497
0.932497
0.932498
0.932499
0.932501
0.932502
0.932502
0.932503
0.932504
0.932505
0.932506
0.932506
0.932507
0.932508
0.932509
0.93251
0.93251
0.932511
0.932512
0.932513
0.932515
0.932515
0.932516
0.932517
0.932518
0.932519
0.932519
0.93252
0.932521
0.932522
0.932523
0.932523
0.932524
0.932525
0.932526
0.932528
0.932528
0.932529
0.93253
0.932531
0.932532
0.932532
0.932533
0.932534
0.932535
0.932536
0.932536
0.932537
0.932538
0.93254
0.932541
0.932541
0.932542
0.932543
0.932544
0.932545
0.932545
0.932546
0.932547
0.932548
0.932549
0.932549
0.932551
0.932552
0.932553
0.932554
0.932554
0.932555
0.932556
0.932557
0.932558
0.932558
0.932559
0.93256
0.932562
0.932563
0.932563
0.932564
0.932565
0.932566
0.932567
0.932567
0.932568
0.932569
0.93257
0.932571
0.932571
0.932573
0.932574
0.932575
0.932576
0.932576
0.932577
0.932578
0.932579
0.93258
0.93258
0.932581
0.932583
0.932584
0.932585
0.932585
0.932586
0.932587
0.932588
0.932589
0.932589
0.93259
0.932592
0.932593
0.932594
0.932594
0.932595
0.932596
0.932597
0.932599
0.932599
0.9326
0.932601
0.932602
0.932603
0.932603
0.932604
0.932606
0.932607
0.932608
0.932608
0.932609
0.93261
0.932611
0.932613
0.932613
0.932614
0.932615
0.932616
0.932617
0.932617
0.932618
0.93262
0.932621
0.932622
0.932622
0.932623
0.932624
0.932625
0.932627
0.932627
0.932628
0.932629
0.93263
0.932631
0.932631
0.932633
0.932634
0.932635
0.932636
0.932636
0.932637
0.932638
0.93264
0.932641
0.932641
0.932642
0.932643
0.932644
0.932645
0.932645
0.932647
0.932648
0.932649
0.93265
0.93265
0.932651
0.932653
0.932654
0.932655
0.932655
0.932656
0.932657
0.932659
0.93266
0.93266
0.932661
0.932662
0.932663
0.932664
0.932664
0.932666
0.932667
0.932668
0.932669
0.932669
0.93267
0.932672
0.932673
0.932674
0.932674
0.932675
0.932676
0.932678
0.932679
0.932679
0.93268
0.932681
0.932682
0.932684
0.932684
0.932685
0.932686
0.932687
0.932688
0.932688
0.93269
0.932691
0.932692
0.932693
0.932693
0.932694
0.932696
0.932697
0.932698
0.932698
0.932699
0.932701
0.932702
0.932703
0.932703
0.932704
0.932705
0.932707
0.932708
0.932708
0.932709
0.93271
0.932711
0.932713
0.932713
0.932714
0.932715
0.932716
0.932718
0.932718
0.932719
0.93272
0.932721
0.932722
0.932722
0.932724
0.932725
0.932726
0.932727
0.932727
0.932729
0.93273
0.932731
0.932732
0.932732
0.932734
0.932735
0.932736
0.932737
0.932737
0.932738
0.93274
0.932741
0.932742
0.932742
0.932743
0.932745
0.932746
0.932747
0.932747
0.932748
0.93275
0.932751
0.932752
0.932752
0.932753
0.932755
0.932756
0.932757
0.932757
0.932758
0.93276
0.932761
0.932762
0.932762
0.932763
0.932765
0.932766
0.932767
0.932767
0.932768
0.93277
0.932771
0.932772
0.932772
0.932773
0.932775
0.932776
0.932777
0.932777
0.932778
0.93278
0.932781
0.932782
0.932782
0.932783
0.932785
0.932786
0.932787
0.932787
0.932788
0.93279
0.932791
0.932792
0.932792
0.932793
0.932795
0.932796
0.932797
0.932797
0.932798
0.9328
0.932801
0.932802
0.932802
0.932803
0.932805
0.932806
0.932807
0.932807
0.932808
0.93281
0.932811
0.932812
0.932812
0.932813
0.932815
0.932816
0.932817
0.932817
0.932819
0.93282
0.932821
0.932822
0.932822
0.932824
0.932825
0.932826
0.932828
0.932828
0.932829
0.93283
0.932832
0.932833
0.932833
0.932834
0.932836
0.932837
0.932838
0.932838
0.93284
0.932841
0.932842
0.932844
0.932844
0.932845
0.932846
0.932847
0.932849
0.932849
0.93285
0.932851
0.932853
0.932854
0.932854
0.932855
0.932857
0.932858
0.932859
0.932859
0.932861
0.932862
0.932863
0.932865
0.932865
0.932866
0.932867
0.932869
0.93287
0.93287
0.932871
0.932873
0.932874
0.932875
0.932875
0.932877
0.932878
0.932879
0.932881
0.932881
0.932882
0.932883
0.932885
0.932886
0.932886
0.932887
0.932889
0.93289
0.932891
0.932891
0.932893
0.932894
0.932895
0.932897
0.932897
0.932898
0.932899
0.932901
0.932902
0.932902
0.932903
0.932905
0.932906
0.932907
0.932907
0.932909
0.93291
0.932912
0.932913
0.932913
0.932914
0.932916
0.932917
0.932918
0.932918
0.93292
0.932921
0.932922
0.932924
0.932924
0.932925
0.932926
0.932928
0.932929
0.932929
0.93293
0.932932
0.932933
0.932934
0.932934
0.932936
0.932937
0.932939
0.93294
0.93294
0.932941
0.932943
0.932944
0.932945
0.932945
0.932947
0.932948
0.932949
0.932951
0.932951
0.932952
0.932954
0.932955
0.932956
0.932956
0.932958
0.932959
0.93296
0.932962
0.932962
0.932963
0.932965
0.932966
0.932967
0.932967
0.932969
0.93297
0.932971
0.932973
0.932973
0.932974
0.932976
0.932977
0.932978
0.932978
0.93298
0.932981
0.932982
0.932984
0.932984
0.932985
0.932987
0.932988
0.932989
0.932989
0.932991
0.932992
0.932994
0.932995
0.932995
0.932996
0.932998
0.932999
0.933
0.933
0.933002
0.933003
0.933005
0.933006
0.933006
0.933007
0.933009
0.93301
0.933012
0.933012
0.933013
0.933014
0.933016
0.933017
0.933017
0.933018
0.93302
0.933021
0.933023
0.933023
0.933024
0.933025
0.933027
0.933028
0.933028
0.93303
0.933031
0.933032
0.933034
0.933034
0.933035
0.933036
0.933038
0.933039
0.933039
0.933041
0.933042
0.933043
0.933045
0.933045
0.933046
0.933048
0.933049
0.93305
0.93305
0.933052
0.933053
0.933055
0.933056
0.933056
0.933058
0.933059
0.933061
0.933062
0.933062
0.933063
0.933065
0.933066
0.933068
0.933068
0.933069
0.933071
0.933072
0.933074
0.933074
0.933075
0.933077
0.933078
0.933079
0.933079
0.933081
0.933082
0.933084
0.933085
0.933085
0.933087
0.933088
0.93309
0.933091
0.933091
0.933093
0.933094
0.933096
0.933097
0.933097
0.933099
0.9331
0.933101
0.933103
0.933103
0.933104
0.933106
0.933107
0.933109
0.933109
0.93311
0.933112
0.933113
0.933115
0.933115
0.933116
0.933118
0.933119
0.933121
0.933121
0.933122
0.933123
0.933125
0.933126
0.933126
0.933128
0.933129
0.933131
0.933132
0.933132
0.933134
0.933135
0.933137
0.933138
0.933138
0.93314
0.933141
0.933143
0.933144
0.933144
0.933146
0.933147
0.933148
0.93315
0.93315
0.933151
0.933153
0.933154
0.933156
0.933156
0.933157
0.933159
0.93316
0.933162
0.933162
0.933163
0.933165
0.933166
0.933168
0.933168
0.933169
0.933171
0.933172
0.933174
0.933174
0.933175
0.933177
0.933178
0.93318
0.93318
0.933181
0.933183
0.933184
0.933186
0.933186
0.933187
0.933189
0.93319
0.933192
0.933192
0.933193
0.933195
0.933196
0.933198
0.933198
0.933199
0.933201
0.933202
0.933204
0.933204
0.933205
0.933207
0.933208
0.93321
0.93321
0.933211
0.933213
0.933214
0.933216
0.933216
0.933217
0.933219
0.93322
0.933222
0.933222
0.933223
0.933225
0.933226
0.933228
0.933228
0.933229
0.933231
0.933232
0.933234
0.933234
0.933235
0.933237
0.933238
0.93324
0.93324
0.933241
0.933243
0.933244
0.933246
0.933246
0.933247
0.933249
0.93325
0.933252
0.933252
0.933253
0.933255
0.933256
0.933258
0.933258
0.933259
0.933261
0.933262
0.933264
0.933264
0.933265
0.933267
0.933268
0.93327
0.93327
0.933271
0.933273
0.933274
0.933276
0.933276
0.933277
0.933279
0.933281
0.933282
0.933282
0.933284
0.933285
0.933287
0.933288
0.933288
0.93329
0.933291
0.933293
0.933295
0.933295
0.933296
0.933298
0.933299
0.933301
0.933301
0.933302
0.933304
0.933306
0.933307
0.933307
0.933309
0.93331
0.933312
0.933314
0.933314
0.933315
0.933317
0.933318
0.93332
0.93332
0.933321
0.933323
0.933325
0.933326
0.933326
0.933328
0.933329
0.933331
0.933333
0.933333
0.933334
0.933336
0.933337
0.933339
0.933339
0.93334
0.933342
0.933344
0.933345
0.933345
0.933347
0.933348
0.93335
0.933352
0.933352
0.933353
0.933355
0.933356
0.933358
0.933358
0.93336
0.933361
0.933363
0.933364
0.933364
0.933366
0.933368
0.933369
0.933371
0.933371
0.933372
0.933374
0.933375
0.933377
0.933377
0.933379
0.93338
0.933382
0.933383
0.933383
0.933385
0.933387
0.933388
0.93339
0.93339
0.933391
0.933393
0.933395
0.933396
0.933396
0.933398
0.933399
0.933401
0.933403
0.933403
0.933404
0.933406
0.933407
0.933409
0.933409
0.933411
0.933412
0.933414
0.933415
0.933415
0.933417
0.933419
0.93342
0.933422
0.933422
0.933424
0.933425
0.933427
0.933428
0.933428
0.93343
0.933432
0.933433
0.933435
0.933435
0.933436
0.933438
0.93344
0.933441
0.933441
0.933443
0.933445
0.933446
0.933448
0.933448
0.933449
0.933451
0.933453
0.933454
0.933454
0.933456
0.933457
0.933459
0.933461
0.933461
0.933462
0.933464
0.933466
0.933467
0.933467
0.933469
0.93347
0.933472
0.933474
0.933474
0.933475
0.933477
0.933478
0.93348
0.93348
0.933482
0.933483
0.933485
0.933487
0.933487
0.933488
0.93349
0.933491
0.933493
0.933493
0.933495
0.933496
0.933498
0.933499
0.933499
0.933501
0.933503
0.933504
0.933506
0.933506
0.933508
0.933509
0.933511
0.933513
0.933513
0.933514
0.933516
0.933518
0.933519
0.933519
0.933521
0.933523
0.933524
0.933526
0.933526
0.933528
0.933529
0.933531
0.933533
0.933533
0.933534
0.933536
0.933538
0.933539
0.933539
0.933541
0.933543
0.933545
0.933546
0.933546
0.933548
0.93355
0.933551
0.933553
0.933553
0.933555
0.933556
0.933558
0.93356
0.93356
0.933562
0.933563
0.933565
0.933567
0.933567
0.933568
0.93357
0.933572
0.933573
0.933573
0.933575
0.933577
0.933578
0.93358
0.93358
0.933582
0.933584
0.933585
0.933587
0.933587
0.933589
0.93359
0.933592
0.933594
0.933594
0.933595
0.933597
0.933599
0.933601
0.933601
0.933602
0.933604
0.933606
0.933607
0.933607
0.933609
0.933611
0.933613
0.933614
0.933614
0.933616
0.933618
0.933619
0.933621
0.933621
0.933623
0.933624
0.933626
0.933628
0.933628
0.93363
0.933631
0.933633
0.933635
0.933635
0.933636
0.933638
0.93364
0.933642
0.933642
0.933643
0.933645
0.933647
0.933648
0.933648
0.93365
0.933652
0.933654
0.933655
0.933655
0.933657
0.933659
0.93366
0.933662
0.933662
0.933664
0.933666
0.933667
0.933669
0.933669
0.933671
0.933672
0.933674
0.933676
0.933676
0.933678
0.933679
0.933681
0.933683
0.933683
0.933684
0.933686
0.933688
0.93369
0.93369
0.933691
0.933693
0.933695
0.933696
0.933696
0.933698
0.9337
0.933702
0.933703
0.933703
0.933705
0.933707
0.933709
0.93371
0.93371
0.933712
0.933714
0.933715
0.933717
0.933717
0.933719
0.933721
0.933722
0.933724
0.933724
0.933726
0.933727
0.933729
0.933731
0.933731
0.933733
0.933734
0.933736
0.933738
0.933738
0.93374
0.933741
0.933743
0.933745
0.933745
0.933747
0.933748
0.93375
0.933752
0.933752
0.933754
0.933755
0.933757
0.933759
0.933759
0.933761
0.933763
0.933764
0.933766
0.933766
0.933768
0.93377
0.933772
0.933773
0.933773
0.933775
0.933777
0.933779
0.933781
0.933781
0.933782
0.933784
0.933786
0.933788
0.933788
0.93379
0.933791
0.933793
0.933795
0.933795
0.933797
0.933799
0.9338
0.933802
0.933802
0.933804
0.933806
0.933808
0.933809
0.933809
0.933811
0.933813
0.933815
0.933817
0.933817
0.933818
0.93382
0.933822
0.933824
0.933824
0.933826
0.933827
0.933829
0.933831
0.933831
0.933833
0.933835
0.933836
0.933838
0.933838
0.93384
0.933842
0.933844
0.933845
0.933845
0.933847
0.933849
0.933851
0.933853
0.933853
0.933854
0.933856
0.933858
0.93386
0.93386
0.933862
0.933863
0.933865
0.933867
0.933867
0.933869
0.933871
0.933873
0.933874
0.933874
0.933876
0.933878
0.93388
0.933882
0.933882
0.933883
0.933885
0.933887
0.933889
0.933889
0.933891
0.933892
0.933894
0.933896
0.933896
0.933898
0.9339
0.933901
0.933903
0.933903
0.933905
0.933907
0.933909
0.933911
0.933911
0.933912
0.933914
0.933916
0.933918
0.933918
0.93392
0.933921
0.933923
0.933925
0.933925
0.933927
0.933929
0.93393
0.933932
0.933932
0.933934
0.933936
0.933938
0.93394
0.93394
0.933941
0.933943
0.933945
0.933947
0.933947
0.933949
0.93395
0.933952
0.933954
0.933954
0.933956
0.933958
0.933959
0.933961
0.933961
0.933963
0.933965
0.933967
0.933969
0.933969
0.93397
0.933972
0.933974
0.933976
0.933976
0.933978
0.93398
0.933982
0.933983
0.933983
0.933985
0.933987
0.933989
0.933991
0.933991
0.933993
0.933995
0.933997
0.933999
0.933999
0.934
0.934002
0.934004
0.934006
0.934006
0.934008
0.93401
0.934012
0.934014
0.934014
0.934016
0.934018
0.934019
0.934021
0.934021
0.934023
0.934025
0.934027
0.934029
0.934029
0.934031
0.934033
0.934035
0.934037
0.934037
0.934038
0.93404
0.934042
0.934044
0.934044
0.934046
0.934048
0.93405
0.934052
0.934052
0.934054
0.934055
0.934057
0.934059
0.934059
0.934061
0.934063
0.934065
0.934067
0.934067
0.934069
0.934071
0.934073
0.934074
0.934074
0.934076
0.934078
0.93408
0.934082
0.934082
0.934084
0.934086
0.934088
0.93409
0.93409
0.934092
0.934093
0.934095
0.934097
0.934097
0.934099
0.934101
0.934103
0.934105
0.934105
0.934107
0.934109
0.934111
0.934112
0.934112
0.934114
0.934116
0.934118
0.93412
0.93412
0.934122
0.934124
0.934126
0.934128
0.934128
0.93413
0.934131
0.934133
0.934135
0.934135
0.934137
0.934139
0.934141
0.934143
0.934143
0.934145
0.934147
0.934149
0.93415
0.93415
0.934152
0.934154
0.934156
0.934158
0.934158
0.93416
0.934162
0.934164
0.934166
0.934166
0.934168
0.934169
0.934171
0.934173
0.934173
0.934175
0.934177
0.934179
0.934181
0.934181
0.934183
0.934185
0.934187
0.934188
0.934188
0.93419
0.934192
0.934194
0.934196
0.934196
0.934198
0.9342
0.934202
0.934204
0.934204
0.934206
0.934208
0.93421
0.934212
0.934212
0.934214
0.934216
0.934218
0.93422
0.93422
0.934222
0.934224
0.934226
0.934227
0.934227
0.934229
0.934231
0.934233
0.934235
0.934235
0.934237
0.934239
0.934241
0.934243
0.934243
0.934245
0.934247
0.934249
0.934251
0.934251
0.934253
0.934255
0.934257
0.934259
0.934259
0.934261
0.934263
0.934265
0.934267
0.934267
0.934269
0.934271
0.934273
0.934275
0.934275
0.934277
0.934279
0.934281
0.934283
0.934283
0.934285
0.934287
0.934289
0.934291
0.934291
0.934293
0.934295
0.934297
0.934299
0.934299
0.934301
0.934303
0.934305
0.934307
0.934307
0.934309
0.934311
0.934313
0.934315
0.934315
0.934317
0.934319
0.934321
0.934323
0.934323
0.934325
0.934327
0.934329
0.934331
0.934331
0.934333
0.934335
0.934337
0.934339
0.934339
0.934341
0.934343
0.934345
0.934347
0.934347
0.934349
0.934351
0.934353
0.934354
0.934354
0.934356
0.934358
0.93436
0.934362
0.934362
0.934364
0.934366
0.934368
0.93437
0.93437
0.934372
0.934374
0.934376
0.934378
0.934378
0.93438
0.934382
0.934384
0.934386
0.934386
0.934388
0.93439
0.934392
0.934394
0.934394
0.934396
0.934398
0.9344
0.934402
0.934402
0.934404
0.934406
0.934408
0.93441
0.93441
0.934412
0.934414
0.934416
0.934418
0.934418
0.93442
0.934422
0.934424
0.934426
0.934426
0.934428
0.93443
0.934432
0.934434
0.934434
0.934436
0.934438
0.93444
0.934442
0.934442
0.934444
0.934446
0.934448
0.934451
0.934451
0.934453
0.934455
0.934457
0.934459
0.934459
0.934461
0.934463
0.934465
0.934467
0.934467
0.934469
0.934471
0.934473
0.934475
0.934475
0.934477
0.93448
0.934482
0.934484
0.934484
0.934486
0.934488
0.93449
0.934492
0.934492
0.934494
0.934496
0.934498
0.9345
0.9345
0.934502
0.934504
0.934506
0.934508
0.934508
0.93451
0.934513
0.934515
0.934517
0.934517
0.934519
0.934521
0.934523
0.934525
0.934525
0.934527
0.934529
0.934531
0.934533
0.934533
0.934535
0.934537
0.934539
0.934541
0.934541
0.934544
0.934546
0.934548
0.93455
0.93455
0.934552
0.934554
0.934556
0.934558
0.934558
0.93456
0.934562
0.934564
0.934566
0.934566
0.934568
0.93457
0.934572
0.934574
0.934574
0.934577
0.934579
0.934581
0.934583
0.934583
0.934585
0.934587
0.934589
0.934591
0.934591
0.934593
0.934595
0.934597
0.934599
0.934599
0.934601
0.934603
0.934605
0.934607
0.934607
0.934609
0.934612
0.934614
0.934616
0.934616
0.934618
0.93462
0.934622
0.934624
0.934624
0.934626
0.934628
0.93463
0.934632
0.934632
0.934634
0.934636
0.934638
0.93464
0.93464
0.934642
0.934645
0.934647
0.934649
0.934649
0.934651
0.934653
0.934655
0.934657
0.934657
0.934659
0.934661
0.934664
0.934666
0.934666
0.934668
0.93467
0.934672
0.934674
0.934674
0.934676
0.934678
0.934681
0.934683
0.934683
0.934685
0.934687
0.934689
0.934691
0.934691
0.934694
0.934696
0.934698
0.9347
0.9347
0.934702
0.934704
0.934706
0.934709
0.934709
0.934711
0.934713
0.934715
0.934717
0.934717
0.934719
0.934721
0.934724
0.934726
0.934726
0.934728
0.93473
0.934732